  29  29   1   0
  0.5987801E+02  0.7657967E-09  0.7657967E-09  0.2961000E-08  0.5000000E-15
   300.000000000000     
  CAR 
 unknown system                          
      4.78653554    -27.41097784  301     -2.16909279      1.00000000
    -27.411  0.0000E+00  0.0000E+00
    -27.304  0.0000E+00  0.0000E+00
    -27.196  0.0000E+00  0.0000E+00
    -27.089  0.0000E+00  0.0000E+00
    -26.982  0.0000E+00  0.0000E+00
    -26.874  0.0000E+00  0.0000E+00
    -26.767  0.0000E+00  0.0000E+00
    -26.660  0.0000E+00  0.0000E+00
    -26.552  0.0000E+00  0.0000E+00
    -26.445  0.0000E+00  0.0000E+00
    -26.338  0.0000E+00  0.0000E+00
    -26.230  0.4417E-14  0.4777E-15
    -26.123  0.3817E-05  0.4157E-06
    -26.016  0.4398E+00  0.4816E-01
    -25.908  0.1542E+02  0.1739E+01
    -25.801  0.2382E+01  0.2000E+01
    -25.694  0.2281E-03  0.2000E+01
    -25.586  0.3072E-11  0.2000E+01
    -25.479  0.0000E+00  0.2000E+01
    -25.372  0.0000E+00  0.2000E+01
    -25.264  0.0000E+00  0.2000E+01
    -25.157  0.0000E+00  0.2000E+01
    -25.050  0.0000E+00  0.2000E+01
    -24.943  0.0000E+00  0.2000E+01
    -24.835  0.0000E+00  0.2000E+01
    -24.728  0.0000E+00  0.2000E+01
    -24.621  0.0000E+00  0.2000E+01
    -24.513  0.0000E+00  0.2000E+01
    -24.406  0.0000E+00  0.2000E+01
    -24.299  0.0000E+00  0.2000E+01
    -24.191  0.0000E+00  0.2000E+01
    -24.084  0.0000E+00  0.2000E+01
    -23.977  0.0000E+00  0.2000E+01
    -23.869  0.0000E+00  0.2000E+01
    -23.762  0.0000E+00  0.2000E+01
    -23.655  0.0000E+00  0.2000E+01
    -23.547  0.0000E+00  0.2000E+01
    -23.440  0.0000E+00  0.2000E+01
    -23.333  0.0000E+00  0.2000E+01
    -23.225  0.0000E+00  0.2000E+01
    -23.118  0.0000E+00  0.2000E+01
    -23.011  0.0000E+00  0.2000E+01
    -22.903  0.0000E+00  0.2000E+01
    -22.796  0.0000E+00  0.2000E+01
    -22.689  0.0000E+00  0.2000E+01
    -22.581  0.0000E+00  0.2000E+01
    -22.474  0.0000E+00  0.2000E+01
    -22.367  0.0000E+00  0.2000E+01
    -22.259  0.0000E+00  0.2000E+01
    -22.152  0.0000E+00  0.2000E+01
    -22.045  0.0000E+00  0.2000E+01
    -21.937  0.0000E+00  0.2000E+01
    -21.830  0.0000E+00  0.2000E+01
    -21.723  0.0000E+00  0.2000E+01
    -21.615  0.0000E+00  0.2000E+01
    -21.508  0.0000E+00  0.2000E+01
    -21.401  0.0000E+00  0.2000E+01
    -21.293  0.0000E+00  0.2000E+01
    -21.186  0.0000E+00  0.2000E+01
    -21.079  0.0000E+00  0.2000E+01
    -20.971  0.0000E+00  0.2000E+01
    -20.864  0.0000E+00  0.2000E+01
    -20.757  0.0000E+00  0.2000E+01
    -20.650  0.0000E+00  0.2000E+01
    -20.542  0.0000E+00  0.2000E+01
    -20.435  0.0000E+00  0.2000E+01
    -20.328  0.0000E+00  0.2000E+01
    -20.220  0.0000E+00  0.2000E+01
    -20.113  0.0000E+00  0.2000E+01
    -20.006  0.0000E+00  0.2000E+01
    -19.898  0.0000E+00  0.2000E+01
    -19.791  0.0000E+00  0.2000E+01
    -19.684  0.0000E+00  0.2000E+01
    -19.576  0.0000E+00  0.2000E+01
    -19.469  0.0000E+00  0.2000E+01
    -19.362  0.0000E+00  0.2000E+01
    -19.254  0.0000E+00  0.2000E+01
    -19.147  0.0000E+00  0.2000E+01
    -19.040  0.0000E+00  0.2000E+01
    -18.932  0.0000E+00  0.2000E+01
    -18.825  0.0000E+00  0.2000E+01
    -18.718  0.0000E+00  0.2000E+01
    -18.610  0.0000E+00  0.2000E+01
    -18.503  0.0000E+00  0.2000E+01
    -18.396  0.0000E+00  0.2000E+01
    -18.288  0.0000E+00  0.2000E+01
    -18.181  0.0000E+00  0.2000E+01
    -18.074  0.0000E+00  0.2000E+01
    -17.966  0.0000E+00  0.2000E+01
    -17.859  0.0000E+00  0.2000E+01
    -17.752  0.0000E+00  0.2000E+01
    -17.644  0.0000E+00  0.2000E+01
    -17.537  0.0000E+00  0.2000E+01
    -17.430  0.0000E+00  0.2000E+01
    -17.322  0.0000E+00  0.2000E+01
    -17.215  0.0000E+00  0.2000E+01
    -17.108  0.0000E+00  0.2000E+01
    -17.000  0.0000E+00  0.2000E+01
    -16.893  0.0000E+00  0.2000E+01
    -16.786  0.0000E+00  0.2000E+01
    -16.678  0.0000E+00  0.2000E+01
    -16.571  0.0000E+00  0.2000E+01
    -16.464  0.0000E+00  0.2000E+01
    -16.356  0.0000E+00  0.2000E+01
    -16.249  0.0000E+00  0.2000E+01
    -16.142  0.0000E+00  0.2000E+01
    -16.035  0.0000E+00  0.2000E+01
    -15.927  0.0000E+00  0.2000E+01
    -15.820  0.0000E+00  0.2000E+01
    -15.713  0.0000E+00  0.2000E+01
    -15.605  0.0000E+00  0.2000E+01
    -15.498  0.0000E+00  0.2000E+01
    -15.391  0.0000E+00  0.2000E+01
    -15.283  0.0000E+00  0.2000E+01
    -15.176  0.0000E+00  0.2000E+01
    -15.069  0.0000E+00  0.2000E+01
    -14.961  0.0000E+00  0.2000E+01
    -14.854  0.0000E+00  0.2000E+01
    -14.747  0.0000E+00  0.2000E+01
    -14.639  0.0000E+00  0.2000E+01
    -14.532  0.0000E+00  0.2000E+01
    -14.425  0.0000E+00  0.2000E+01
    -14.317  0.0000E+00  0.2000E+01
    -14.210  0.0000E+00  0.2000E+01
    -14.103  0.0000E+00  0.2000E+01
    -13.995  0.0000E+00  0.2000E+01
    -13.888  0.0000E+00  0.2000E+01
    -13.781  0.0000E+00  0.2000E+01
    -13.673  0.0000E+00  0.2000E+01
    -13.566  0.0000E+00  0.2000E+01
    -13.459  0.0000E+00  0.2000E+01
    -13.351  0.0000E+00  0.2000E+01
    -13.244  0.0000E+00  0.2000E+01
    -13.137  0.0000E+00  0.2000E+01
    -13.029  0.0000E+00  0.2000E+01
    -12.922  0.0000E+00  0.2000E+01
    -12.815  0.0000E+00  0.2000E+01
    -12.707  0.0000E+00  0.2000E+01
    -12.600  0.1112E-12  0.2000E+01
    -12.493  0.2055E-05  0.2000E+01
    -12.385  0.8631E-02  0.2001E+01
    -12.278  0.1750E+00  0.2020E+01
    -12.171  0.6816E+00  0.2093E+01
    -12.063  0.1297E+01  0.2232E+01
    -11.956  0.2080E+01  0.2457E+01
    -11.849  0.2594E+01  0.2737E+01
    -11.742  0.2304E+01  0.2988E+01
    -11.634  0.2284E+01  0.3239E+01
    -11.527  0.2665E+01  0.3535E+01
    -11.420  0.2668E+01  0.3833E+01
    -11.312  0.1401E+01  0.3990E+01
    -11.205  0.8687E-01  0.4000E+01
    -11.098  0.4637E-04  0.4000E+01
    -10.990  0.7184E-11  0.4000E+01
    -10.883  0.0000E+00  0.4000E+01
    -10.776  0.3914E-10  0.4000E+01
    -10.668  0.1902E-04  0.4000E+01
    -10.561  0.5177E-02  0.4001E+01
    -10.454  0.1978E-01  0.4003E+01
    -10.346  0.8545E-01  0.4012E+01
    -10.239  0.3395E+00  0.4048E+01
    -10.132  0.4667E+00  0.4099E+01
    -10.024  0.9607E+00  0.4202E+01
     -9.917  0.1725E+01  0.4389E+01
     -9.810  0.1949E+01  0.4600E+01
     -9.702  0.2506E+01  0.4873E+01
     -9.595  0.2806E+01  0.5180E+01
     -9.488  0.3258E+01  0.5537E+01
     -9.380  0.3572E+01  0.5929E+01
     -9.273  0.3537E+01  0.6317E+01
     -9.166  0.4890E+01  0.6857E+01
     -9.058  0.1091E+02  0.8067E+01
     -8.951  0.1341E+02  0.9542E+01
     -8.844  0.1439E+02  0.1111E+02
     -8.736  0.1150E+02  0.1235E+02
     -8.629  0.5951E+01  0.1300E+02
     -8.522  0.4692E+01  0.1352E+02
     -8.414  0.3848E+01  0.1394E+02
     -8.307  0.3285E+01  0.1431E+02
     -8.200  0.2179E+01  0.1455E+02
     -8.092  0.1817E+01  0.1475E+02
     -7.985  0.2311E+01  0.1500E+02
     -7.878  0.2751E+01  0.1530E+02
     -7.770  0.3363E+01  0.1566E+02
     -7.663  0.5421E+01  0.1625E+02
     -7.556  0.6700E+01  0.1698E+02
     -7.449  0.6179E+01  0.1766E+02
     -7.341  0.5925E+01  0.1831E+02
     -7.234  0.6407E+01  0.1902E+02
     -7.127  0.6239E+01  0.1970E+02
     -7.019  0.6541E+01  0.2042E+02
     -6.912  0.6954E+01  0.2118E+02
     -6.805  0.8716E+01  0.2213E+02
     -6.697  0.1099E+02  0.2332E+02
     -6.590  0.1272E+02  0.2471E+02
     -6.483  0.1446E+02  0.2629E+02
     -6.375  0.1979E+02  0.2845E+02
     -6.268  0.2651E+02  0.3134E+02
     -6.161  0.2837E+02  0.3443E+02
     -6.053  0.3282E+02  0.3802E+02
     -5.946  0.4354E+02  0.4278E+02
     -5.839  0.4881E+02  0.4811E+02
     -5.731  0.4940E+02  0.5351E+02
     -5.624  0.5598E+02  0.5964E+02
     -5.517  0.5643E+02  0.6584E+02
     -5.409  0.5567E+02  0.7194E+02
     -5.302  0.5630E+02  0.7812E+02
     -5.195  0.5597E+02  0.8424E+02
     -5.087  0.5893E+02  0.9069E+02
     -4.980  0.6423E+02  0.9773E+02
     -4.873  0.7007E+02  0.1054E+03
     -4.765  0.7955E+02  0.1141E+03
     -4.658  0.8706E+02  0.1236E+03
     -4.551  0.9290E+02  0.1338E+03
     -4.443  0.1003E+03  0.1448E+03
     -4.336  0.1051E+03  0.1563E+03
     -4.229  0.1034E+03  0.1676E+03
     -4.121  0.1009E+03  0.1787E+03
     -4.014  0.1095E+03  0.1907E+03
     -3.907  0.1169E+03  0.2035E+03
     -3.799  0.1225E+03  0.2169E+03
     -3.692  0.1369E+03  0.2319E+03
     -3.585  0.1419E+03  0.2474E+03
     -3.477  0.1388E+03  0.2627E+03
     -3.370  0.1177E+03  0.2756E+03
     -3.263  0.8903E+02  0.2855E+03
     -3.156  0.5814E+02  0.2919E+03
     -3.048  0.2410E+02  0.2946E+03
     -2.941  0.1413E+02  0.2962E+03
     -2.834  0.1245E+02  0.2975E+03
     -2.726  0.1247E+02  0.2989E+03
     -2.619  0.1364E+02  0.3004E+03
     -2.512  0.8814E+01  0.3013E+03
     -2.404  0.9063E+01  0.3023E+03
     -2.297  0.7618E+01  0.3032E+03
     -2.190  0.1036E+02  0.3043E+03
     -2.082  0.1157E+02  0.3056E+03
     -1.975  0.1216E+02  0.3069E+03
     -1.868  0.1097E+02  0.3081E+03
     -1.760  0.7695E+01  0.3090E+03
     -1.653  0.5767E+01  0.3096E+03
     -1.546  0.7327E+01  0.3104E+03
     -1.438  0.6167E+01  0.3111E+03
     -1.331  0.8385E+01  0.3120E+03
     -1.224  0.8382E+01  0.3129E+03
     -1.116  0.9816E+01  0.3140E+03
     -1.009  0.9561E+01  0.3150E+03
     -0.902  0.1114E+02  0.3163E+03
     -0.794  0.9830E+01  0.3173E+03
     -0.687  0.1190E+02  0.3186E+03
     -0.580  0.1280E+02  0.3200E+03
     -0.472  0.1212E+02  0.3214E+03
     -0.365  0.1036E+02  0.3225E+03
     -0.258  0.8017E+01  0.3234E+03
     -0.150  0.6387E+01  0.3241E+03
     -0.043  0.7125E+01  0.3249E+03
      0.064  0.9758E+01  0.3259E+03
      0.172  0.1345E+02  0.3274E+03
      0.279  0.1381E+02  0.3289E+03
      0.386  0.1024E+02  0.3301E+03
      0.494  0.6580E+01  0.3308E+03
      0.601  0.5850E+01  0.3314E+03
      0.708  0.6939E+01  0.3322E+03
      0.816  0.7721E+01  0.3330E+03
      0.923  0.8018E+01  0.3339E+03
      1.030  0.9223E+01  0.3349E+03
      1.137  0.1170E+02  0.3362E+03
      1.245  0.1465E+02  0.3378E+03
      1.352  0.1349E+02  0.3393E+03
      1.459  0.9381E+01  0.3403E+03
      1.567  0.6827E+01  0.3411E+03
      1.674  0.8172E+01  0.3420E+03
      1.781  0.1274E+02  0.3433E+03
      1.889  0.1341E+02  0.3448E+03
      1.996  0.8575E+01  0.3458E+03
      2.103  0.9324E+01  0.3468E+03
      2.211  0.1555E+02  0.3485E+03
      2.318  0.1550E+02  0.3502E+03
      2.425  0.1854E+02  0.3522E+03
      2.533  0.2198E+02  0.3546E+03
      2.640  0.2180E+02  0.3570E+03
      2.747  0.1954E+02  0.3592E+03
      2.855  0.1443E+02  0.3607E+03
      2.962  0.1404E+02  0.3623E+03
      3.069  0.1228E+02  0.3636E+03
      3.177  0.1122E+02  0.3649E+03
      3.284  0.2015E+02  0.3671E+03
      3.391  0.8379E+01  0.3680E+03
      3.499  0.1061E+00  0.3680E+03
      3.606  0.7840E-06  0.3680E+03
      3.713  0.8020E-15  0.3680E+03
      3.821  0.0000E+00  0.3680E+03
      3.928  0.0000E+00  0.3680E+03
      4.035  0.0000E+00  0.3680E+03
      4.143  0.0000E+00  0.3680E+03
      4.250  0.0000E+00  0.3680E+03
      4.357  0.0000E+00  0.3680E+03
      4.465  0.0000E+00  0.3680E+03
      4.572  0.0000E+00  0.3680E+03
      4.679  0.0000E+00  0.3680E+03
      4.787  0.0000E+00  0.3680E+03
      4.82100114    -27.39045505  301     -2.19943498      1.00000000
    -27.390  0.0000E+00  0.0000E+00
    -27.283  0.0000E+00  0.0000E+00
    -27.176  0.0000E+00  0.0000E+00
    -27.068  0.0000E+00  0.0000E+00
    -26.961  0.0000E+00  0.0000E+00
    -26.854  0.0000E+00  0.0000E+00
    -26.746  0.0000E+00  0.0000E+00
    -26.639  0.0000E+00  0.0000E+00
    -26.531  0.0000E+00  0.0000E+00
    -26.424  0.0000E+00  0.0000E+00
    -26.317  0.0000E+00  0.0000E+00
    -26.209  0.5227E-17  0.5613E-18
    -26.102  0.3080E-08  0.3307E-09
    -25.995  0.2465E-03  0.2647E-04
    -25.887  0.7806E-02  0.8647E-03
    -25.780  0.1260E-02  0.1000E-02
    -25.673  0.1629E-06  0.1000E-02
    -25.565  0.3360E-14  0.1000E-02
    -25.458  0.0000E+00  0.1000E-02
    -25.350  0.0000E+00  0.1000E-02
    -25.243  0.0000E+00  0.1000E-02
    -25.136  0.0000E+00  0.1000E-02
    -25.028  0.0000E+00  0.1000E-02
    -24.921  0.0000E+00  0.1000E-02
    -24.814  0.0000E+00  0.1000E-02
    -24.706  0.0000E+00  0.1000E-02
    -24.599  0.0000E+00  0.1000E-02
    -24.491  0.0000E+00  0.1000E-02
    -24.384  0.0000E+00  0.1000E-02
    -24.277  0.0000E+00  0.1000E-02
    -24.169  0.0000E+00  0.1000E-02
    -24.062  0.0000E+00  0.1000E-02
    -23.955  0.0000E+00  0.1000E-02
    -23.847  0.0000E+00  0.1000E-02
    -23.740  0.0000E+00  0.1000E-02
    -23.632  0.0000E+00  0.1000E-02
    -23.525  0.0000E+00  0.1000E-02
    -23.418  0.0000E+00  0.1000E-02
    -23.310  0.0000E+00  0.1000E-02
    -23.203  0.0000E+00  0.1000E-02
    -23.096  0.0000E+00  0.1000E-02
    -22.988  0.0000E+00  0.1000E-02
    -22.881  0.0000E+00  0.1000E-02
    -22.773  0.0000E+00  0.1000E-02
    -22.666  0.0000E+00  0.1000E-02
    -22.559  0.0000E+00  0.1000E-02
    -22.451  0.0000E+00  0.1000E-02
    -22.344  0.0000E+00  0.1000E-02
    -22.237  0.0000E+00  0.1000E-02
    -22.129  0.0000E+00  0.1000E-02
    -22.022  0.0000E+00  0.1000E-02
    -21.915  0.0000E+00  0.1000E-02
    -21.807  0.0000E+00  0.1000E-02
    -21.700  0.0000E+00  0.1000E-02
    -21.592  0.0000E+00  0.1000E-02
    -21.485  0.0000E+00  0.1000E-02
    -21.378  0.0000E+00  0.1000E-02
    -21.270  0.0000E+00  0.1000E-02
    -21.163  0.0000E+00  0.1000E-02
    -21.056  0.0000E+00  0.1000E-02
    -20.948  0.0000E+00  0.1000E-02
    -20.841  0.0000E+00  0.1000E-02
    -20.733  0.0000E+00  0.1000E-02
    -20.626  0.0000E+00  0.1000E-02
    -20.519  0.0000E+00  0.1000E-02
    -20.411  0.0000E+00  0.1000E-02
    -20.304  0.0000E+00  0.1000E-02
    -20.197  0.0000E+00  0.1000E-02
    -20.089  0.0000E+00  0.1000E-02
    -19.982  0.0000E+00  0.1000E-02
    -19.874  0.0000E+00  0.1000E-02
    -19.767  0.0000E+00  0.1000E-02
    -19.660  0.0000E+00  0.1000E-02
    -19.552  0.0000E+00  0.1000E-02
    -19.445  0.0000E+00  0.1000E-02
    -19.338  0.0000E+00  0.1000E-02
    -19.230  0.0000E+00  0.1000E-02
    -19.123  0.0000E+00  0.1000E-02
    -19.015  0.0000E+00  0.1000E-02
    -18.908  0.0000E+00  0.1000E-02
    -18.801  0.0000E+00  0.1000E-02
    -18.693  0.0000E+00  0.1000E-02
    -18.586  0.0000E+00  0.1000E-02
    -18.479  0.0000E+00  0.1000E-02
    -18.371  0.0000E+00  0.1000E-02
    -18.264  0.0000E+00  0.1000E-02
    -18.157  0.0000E+00  0.1000E-02
    -18.049  0.0000E+00  0.1000E-02
    -17.942  0.0000E+00  0.1000E-02
    -17.834  0.0000E+00  0.1000E-02
    -17.727  0.0000E+00  0.1000E-02
    -17.620  0.0000E+00  0.1000E-02
    -17.512  0.0000E+00  0.1000E-02
    -17.405  0.0000E+00  0.1000E-02
    -17.298  0.0000E+00  0.1000E-02
    -17.190  0.0000E+00  0.1000E-02
    -17.083  0.0000E+00  0.1000E-02
    -16.975  0.0000E+00  0.1000E-02
    -16.868  0.0000E+00  0.1000E-02
    -16.761  0.0000E+00  0.1000E-02
    -16.653  0.0000E+00  0.1000E-02
    -16.546  0.0000E+00  0.1000E-02
    -16.439  0.0000E+00  0.1000E-02
    -16.331  0.0000E+00  0.1000E-02
    -16.224  0.0000E+00  0.1000E-02
    -16.116  0.0000E+00  0.1000E-02
    -16.009  0.0000E+00  0.1000E-02
    -15.902  0.0000E+00  0.1000E-02
    -15.794  0.0000E+00  0.1000E-02
    -15.687  0.0000E+00  0.1000E-02
    -15.580  0.0000E+00  0.1000E-02
    -15.472  0.0000E+00  0.1000E-02
    -15.365  0.0000E+00  0.1000E-02
    -15.257  0.0000E+00  0.1000E-02
    -15.150  0.0000E+00  0.1000E-02
    -15.043  0.0000E+00  0.1000E-02
    -14.935  0.0000E+00  0.1000E-02
    -14.828  0.0000E+00  0.1000E-02
    -14.721  0.0000E+00  0.1000E-02
    -14.613  0.0000E+00  0.1000E-02
    -14.506  0.0000E+00  0.1000E-02
    -14.399  0.0000E+00  0.1000E-02
    -14.291  0.0000E+00  0.1000E-02
    -14.184  0.0000E+00  0.1000E-02
    -14.076  0.0000E+00  0.1000E-02
    -13.969  0.0000E+00  0.1000E-02
    -13.862  0.0000E+00  0.1000E-02
    -13.754  0.0000E+00  0.1000E-02
    -13.647  0.0000E+00  0.1000E-02
    -13.540  0.0000E+00  0.1000E-02
    -13.432  0.0000E+00  0.1000E-02
    -13.325  0.0000E+00  0.1000E-02
    -13.217  0.0000E+00  0.1000E-02
    -13.110  0.0000E+00  0.1000E-02
    -13.003  0.0000E+00  0.1000E-02
    -12.895  0.0000E+00  0.1000E-02
    -12.788  0.0000E+00  0.1000E-02
    -12.681  0.0000E+00  0.1000E-02
    -12.573  0.0000E+00  0.1000E-02
    -12.466  0.0000E+00  0.1000E-02
    -12.358  0.0000E+00  0.1000E-02
    -12.251  0.1186E-13  0.1000E-02
    -12.144  0.3434E-06  0.1000E-02
    -12.036  0.1648E-02  0.1177E-02
    -11.929  0.7503E-02  0.1983E-02
    -11.822  0.1625E-03  0.2000E-02
    -11.714  0.1236E-08  0.2000E-02
    -11.607  0.1494E-17  0.2000E-02
    -11.499  0.0000E+00  0.2000E-02
    -11.392  0.0000E+00  0.2000E-02
    -11.285  0.0000E+00  0.2000E-02
    -11.177  0.0000E+00  0.2000E-02
    -11.070  0.0000E+00  0.2000E-02
    -10.963  0.0000E+00  0.2000E-02
    -10.855  0.0000E+00  0.2000E-02
    -10.748  0.0000E+00  0.2000E-02
    -10.640  0.0000E+00  0.2000E-02
    -10.533  0.3730E-15  0.2000E-02
    -10.426  0.1809E-07  0.2000E-02
    -10.318  0.1400E-03  0.2015E-02
    -10.211  0.8674E-03  0.2108E-02
    -10.104  0.3093E-04  0.2111E-02
     -9.996  0.1902E-02  0.2316E-02
     -9.889  0.2227E-02  0.2555E-02
     -9.782  0.1001E-03  0.2566E-02
     -9.674  0.3421E-02  0.2933E-02
     -9.567  0.6245E-03  0.3000E-02
     -9.459  0.9752E-07  0.3000E-02
     -9.352  0.2893E-08  0.3000E-02
     -9.245  0.1521E-03  0.3016E-02
     -9.137  0.3547E-02  0.3397E-02
     -9.030  0.7631E-03  0.3479E-02
     -8.923  0.4832E-02  0.3998E-02
     -8.815  0.1172E-01  0.5257E-02
     -8.708  0.1006E-01  0.6337E-02
     -8.600  0.3088E-02  0.6669E-02
     -8.493  0.5507E-02  0.7260E-02
     -8.386  0.6818E-03  0.7333E-02
     -8.278  0.1247E-06  0.7333E-02
     -8.171  0.2880E-04  0.7336E-02
     -8.064  0.2981E-02  0.7656E-02
     -7.956  0.2858E-02  0.7963E-02
     -7.849  0.2336E-02  0.8214E-02
     -7.741  0.1945E-02  0.8423E-02
     -7.634  0.7311E-02  0.9208E-02
     -7.527  0.3585E-02  0.9593E-02
     -7.419  0.7813E-03  0.9677E-02
     -7.312  0.3422E-02  0.1004E-01
     -7.205  0.6821E-03  0.1012E-01
     -7.097  0.5088E-02  0.1066E-01
     -6.990  0.4829E-02  0.1118E-01
     -6.882  0.5041E-02  0.1172E-01
     -6.775  0.6640E-02  0.1244E-01
     -6.668  0.9770E-02  0.1349E-01
     -6.560  0.5761E-02  0.1410E-01
     -6.453  0.1008E-01  0.1519E-01
     -6.346  0.2137E-01  0.1748E-01
     -6.238  0.2430E-01  0.2009E-01
     -6.131  0.7348E-02  0.2088E-01
     -6.024  0.2479E-01  0.2354E-01
     -5.916  0.3605E-01  0.2741E-01
     -5.809  0.2606E-01  0.3021E-01
     -5.701  0.3348E-01  0.3380E-01
     -5.594  0.2237E-01  0.3621E-01
     -5.487  0.2250E-01  0.3862E-01
     -5.379  0.2516E-01  0.4132E-01
     -5.272  0.3669E-01  0.4526E-01
     -5.165  0.3429E-01  0.4894E-01
     -5.057  0.3617E-01  0.5283E-01
     -4.950  0.4213E-01  0.5735E-01
     -4.842  0.5008E-01  0.6273E-01
     -4.735  0.5040E-01  0.6814E-01
     -4.628  0.4353E-01  0.7282E-01
     -4.520  0.5308E-01  0.7852E-01
     -4.413  0.5755E-01  0.8469E-01
     -4.306  0.5810E-01  0.9093E-01
     -4.198  0.4538E-01  0.9581E-01
     -4.091  0.5289E-01  0.1015E+00
     -3.983  0.7518E-01  0.1096E+00
     -3.876  0.7046E-01  0.1171E+00
     -3.769  0.7618E-01  0.1253E+00
     -3.661  0.6779E-01  0.1326E+00
     -3.554  0.7608E-01  0.1407E+00
     -3.447  0.4477E-01  0.1456E+00
     -3.339  0.1486E-01  0.1472E+00
     -3.232  0.5237E-02  0.1477E+00
     -3.124  0.9974E-03  0.1478E+00
     -3.017  0.8139E-02  0.1487E+00
     -2.910  0.1001E-01  0.1498E+00
     -2.802  0.2630E-02  0.1501E+00
     -2.695  0.7760E-02  0.1509E+00
     -2.588  0.1449E-02  0.1510E+00
     -2.480  0.5302E-02  0.1516E+00
     -2.373  0.2600E-02  0.1519E+00
     -2.266  0.6463E-02  0.1526E+00
     -2.158  0.1213E-01  0.1539E+00
     -2.051  0.2089E-02  0.1541E+00
     -1.943  0.1490E-02  0.1543E+00
     -1.836  0.5328E-02  0.1548E+00
     -1.729  0.3662E-02  0.1552E+00
     -1.621  0.3184E-02  0.1556E+00
     -1.514  0.2858E-02  0.1559E+00
     -1.407  0.2696E-02  0.1562E+00
     -1.299  0.7988E-02  0.1570E+00
     -1.192  0.4330E-02  0.1575E+00
     -1.084  0.4076E-02  0.1579E+00
     -0.977  0.6407E-02  0.1586E+00
     -0.870  0.6313E-02  0.1593E+00
     -0.762  0.6691E-02  0.1600E+00
     -0.655  0.5918E-02  0.1607E+00
     -0.548  0.7537E-02  0.1615E+00
     -0.440  0.5159E-02  0.1620E+00
     -0.333  0.1777E-02  0.1622E+00
     -0.225  0.4818E-02  0.1627E+00
     -0.118  0.4513E-02  0.1632E+00
     -0.011  0.7245E-02  0.1640E+00
      0.097  0.1079E-01  0.1651E+00
      0.204  0.4021E-02  0.1656E+00
      0.311  0.3276E-02  0.1659E+00
      0.419  0.6471E-03  0.1660E+00
      0.526  0.9648E-04  0.1660E+00
      0.634  0.3900E-02  0.1664E+00
      0.741  0.4712E-02  0.1669E+00
      0.848  0.4774E-02  0.1674E+00
      0.956  0.4105E-02  0.1679E+00
      1.063  0.4981E-02  0.1684E+00
      1.170  0.1082E-01  0.1696E+00
      1.278  0.3833E-02  0.1700E+00
      1.385  0.3145E-02  0.1703E+00
      1.492  0.4254E-02  0.1708E+00
      1.600  0.3074E-02  0.1711E+00
      1.707  0.9646E-02  0.1722E+00
      1.815  0.5106E-02  0.1727E+00
      1.922  0.2855E-02  0.1730E+00
      2.029  0.5466E-02  0.1736E+00
      2.137  0.7665E-02  0.1744E+00
      2.244  0.7743E-02  0.1753E+00
      2.351  0.1100E-01  0.1764E+00
      2.459  0.7667E-02  0.1773E+00
      2.566  0.1571E-01  0.1789E+00
      2.674  0.7819E-02  0.1798E+00
      2.781  0.5065E-02  0.1803E+00
      2.888  0.8951E-02  0.1813E+00
      2.996  0.5750E-02  0.1819E+00
      3.103  0.6632E-02  0.1826E+00
      3.210  0.4742E-02  0.1831E+00
      3.318  0.4387E-02  0.1836E+00
      3.425  0.3684E-02  0.1840E+00
      3.533  0.6936E-04  0.1840E+00
      3.640  0.7307E-09  0.1840E+00
      3.747  0.1379E-17  0.1840E+00
      3.855  0.0000E+00  0.1840E+00
      3.962  0.0000E+00  0.1840E+00
      4.069  0.0000E+00  0.1840E+00
      4.177  0.0000E+00  0.1840E+00
      4.284  0.0000E+00  0.1840E+00
      4.392  0.0000E+00  0.1840E+00
      4.499  0.0000E+00  0.1840E+00
      4.606  0.0000E+00  0.1840E+00
      4.714  0.0000E+00  0.1840E+00
      4.821  0.0000E+00  0.1840E+00
      4.82100114    -27.39045505  301     -2.19943498      1.00000000
    -27.390  0.0000E+00  0.0000E+00  0.0000E+00  0.0000E+00  0.0000E+00  0.0000E+00  0.0000E+00  0.0000E+00  0.0000E+00
    -27.283  0.0000E+00  0.0000E+00  0.0000E+00  0.0000E+00  0.0000E+00  0.0000E+00  0.0000E+00  0.0000E+00  0.0000E+00
    -27.176  0.0000E+00  0.0000E+00  0.0000E+00  0.0000E+00  0.0000E+00  0.0000E+00  0.0000E+00  0.0000E+00  0.0000E+00
    -27.068  0.0000E+00  0.0000E+00  0.0000E+00  0.0000E+00  0.0000E+00  0.0000E+00  0.0000E+00  0.0000E+00  0.0000E+00
    -26.961  0.0000E+00  0.0000E+00  0.0000E+00  0.0000E+00  0.0000E+00  0.0000E+00  0.0000E+00  0.0000E+00  0.0000E+00
    -26.854  0.0000E+00  0.0000E+00  0.0000E+00  0.0000E+00  0.0000E+00  0.0000E+00  0.0000E+00  0.0000E+00  0.0000E+00
    -26.746  0.0000E+00  0.0000E+00  0.0000E+00  0.0000E+00  0.0000E+00  0.0000E+00  0.0000E+00  0.0000E+00  0.0000E+00
    -26.639  0.0000E+00  0.0000E+00  0.0000E+00  0.0000E+00  0.0000E+00  0.0000E+00  0.0000E+00  0.0000E+00  0.0000E+00
    -26.531  0.0000E+00  0.0000E+00  0.0000E+00  0.0000E+00  0.0000E+00  0.0000E+00  0.0000E+00  0.0000E+00  0.0000E+00
    -26.424  0.0000E+00  0.0000E+00  0.0000E+00  0.0000E+00  0.0000E+00  0.0000E+00  0.0000E+00  0.0000E+00  0.0000E+00
    -26.317  0.0000E+00  0.0000E+00  0.0000E+00  0.0000E+00  0.0000E+00  0.0000E+00  0.0000E+00  0.0000E+00  0.0000E+00
    -26.209  0.6519E-24  0.6577E-24  0.5507E-24  0.2409E-24  0.6549E-25  0.1895E-24  0.2809E-24  0.1722E-24  0.3221E-24
    -26.102  0.3867E-15  0.3871E-15  0.3240E-15  0.1402E-15  0.3858E-16  0.1113E-15  0.1655E-15  0.9927E-16  0.1886E-15
    -25.995  0.3097E-10  0.3094E-10  0.2593E-10  0.1119E-10  0.3090E-11  0.8913E-11  0.1325E-10  0.7923E-11  0.1507E-10
    -25.887  0.9814E-09  0.9786E-09  0.8209E-09  0.3540E-09  0.9793E-10  0.2823E-09  0.4197E-09  0.2504E-09  0.4766E-09
    -25.780  0.1585E-09  0.1579E-09  0.1325E-09  0.5708E-10  0.1582E-10  0.4558E-10  0.6777E-10  0.4036E-10  0.7687E-10
    -25.673  0.2050E-13  0.2037E-13  0.1712E-13  0.7362E-14  0.2046E-14  0.5890E-14  0.8760E-14  0.5201E-14  0.9917E-14
    -25.565  0.4231E-21  0.4195E-21  0.3532E-21  0.1515E-21  0.4224E-22  0.1215E-21  0.1808E-21  0.1070E-21  0.2042E-21
    -25.458  0.0000E+00  0.0000E+00  0.0000E+00  0.0000E+00  0.0000E+00  0.0000E+00  0.0000E+00  0.0000E+00  0.0000E+00
    -25.350  0.0000E+00  0.0000E+00  0.0000E+00  0.0000E+00  0.0000E+00  0.0000E+00  0.0000E+00  0.0000E+00  0.0000E+00
    -25.243  0.0000E+00  0.0000E+00  0.0000E+00  0.0000E+00  0.0000E+00  0.0000E+00  0.0000E+00  0.0000E+00  0.0000E+00
    -25.136  0.0000E+00  0.0000E+00  0.0000E+00  0.0000E+00  0.0000E+00  0.0000E+00  0.0000E+00  0.0000E+00  0.0000E+00
    -25.028  0.0000E+00  0.0000E+00  0.0000E+00  0.0000E+00  0.0000E+00  0.0000E+00  0.0000E+00  0.0000E+00  0.0000E+00
    -24.921  0.0000E+00  0.0000E+00  0.0000E+00  0.0000E+00  0.0000E+00  0.0000E+00  0.0000E+00  0.0000E+00  0.0000E+00
    -24.814  0.0000E+00  0.0000E+00  0.0000E+00  0.0000E+00  0.0000E+00  0.0000E+00  0.0000E+00  0.0000E+00  0.0000E+00
    -24.706  0.0000E+00  0.0000E+00  0.0000E+00  0.0000E+00  0.0000E+00  0.0000E+00  0.0000E+00  0.0000E+00  0.0000E+00
    -24.599  0.0000E+00  0.0000E+00  0.0000E+00  0.0000E+00  0.0000E+00  0.0000E+00  0.0000E+00  0.0000E+00  0.0000E+00
    -24.491  0.0000E+00  0.0000E+00  0.0000E+00  0.0000E+00  0.0000E+00  0.0000E+00  0.0000E+00  0.0000E+00  0.0000E+00
    -24.384  0.0000E+00  0.0000E+00  0.0000E+00  0.0000E+00  0.0000E+00  0.0000E+00  0.0000E+00  0.0000E+00  0.0000E+00
    -24.277  0.0000E+00  0.0000E+00  0.0000E+00  0.0000E+00  0.0000E+00  0.0000E+00  0.0000E+00  0.0000E+00  0.0000E+00
    -24.169  0.0000E+00  0.0000E+00  0.0000E+00  0.0000E+00  0.0000E+00  0.0000E+00  0.0000E+00  0.0000E+00  0.0000E+00
    -24.062  0.0000E+00  0.0000E+00  0.0000E+00  0.0000E+00  0.0000E+00  0.0000E+00  0.0000E+00  0.0000E+00  0.0000E+00
    -23.955  0.0000E+00  0.0000E+00  0.0000E+00  0.0000E+00  0.0000E+00  0.0000E+00  0.0000E+00  0.0000E+00  0.0000E+00
    -23.847  0.0000E+00  0.0000E+00  0.0000E+00  0.0000E+00  0.0000E+00  0.0000E+00  0.0000E+00  0.0000E+00  0.0000E+00
    -23.740  0.0000E+00  0.0000E+00  0.0000E+00  0.0000E+00  0.0000E+00  0.0000E+00  0.0000E+00  0.0000E+00  0.0000E+00
    -23.632  0.0000E+00  0.0000E+00  0.0000E+00  0.0000E+00  0.0000E+00  0.0000E+00  0.0000E+00  0.0000E+00  0.0000E+00
    -23.525  0.0000E+00  0.0000E+00  0.0000E+00  0.0000E+00  0.0000E+00  0.0000E+00  0.0000E+00  0.0000E+00  0.0000E+00
    -23.418  0.0000E+00  0.0000E+00  0.0000E+00  0.0000E+00  0.0000E+00  0.0000E+00  0.0000E+00  0.0000E+00  0.0000E+00
    -23.310  0.0000E+00  0.0000E+00  0.0000E+00  0.0000E+00  0.0000E+00  0.0000E+00  0.0000E+00  0.0000E+00  0.0000E+00
    -23.203  0.0000E+00  0.0000E+00  0.0000E+00  0.0000E+00  0.0000E+00  0.0000E+00  0.0000E+00  0.0000E+00  0.0000E+00
    -23.096  0.0000E+00  0.0000E+00  0.0000E+00  0.0000E+00  0.0000E+00  0.0000E+00  0.0000E+00  0.0000E+00  0.0000E+00
    -22.988  0.0000E+00  0.0000E+00  0.0000E+00  0.0000E+00  0.0000E+00  0.0000E+00  0.0000E+00  0.0000E+00  0.0000E+00
    -22.881  0.0000E+00  0.0000E+00  0.0000E+00  0.0000E+00  0.0000E+00  0.0000E+00  0.0000E+00  0.0000E+00  0.0000E+00
    -22.773  0.0000E+00  0.0000E+00  0.0000E+00  0.0000E+00  0.0000E+00  0.0000E+00  0.0000E+00  0.0000E+00  0.0000E+00
    -22.666  0.0000E+00  0.0000E+00  0.0000E+00  0.0000E+00  0.0000E+00  0.0000E+00  0.0000E+00  0.0000E+00  0.0000E+00
    -22.559  0.0000E+00  0.0000E+00  0.0000E+00  0.0000E+00  0.0000E+00  0.0000E+00  0.0000E+00  0.0000E+00  0.0000E+00
    -22.451  0.0000E+00  0.0000E+00  0.0000E+00  0.0000E+00  0.0000E+00  0.0000E+00  0.0000E+00  0.0000E+00  0.0000E+00
    -22.344  0.0000E+00  0.0000E+00  0.0000E+00  0.0000E+00  0.0000E+00  0.0000E+00  0.0000E+00  0.0000E+00  0.0000E+00
    -22.237  0.0000E+00  0.0000E+00  0.0000E+00  0.0000E+00  0.0000E+00  0.0000E+00  0.0000E+00  0.0000E+00  0.0000E+00
    -22.129  0.0000E+00  0.0000E+00  0.0000E+00  0.0000E+00  0.0000E+00  0.0000E+00  0.0000E+00  0.0000E+00  0.0000E+00
    -22.022  0.0000E+00  0.0000E+00  0.0000E+00  0.0000E+00  0.0000E+00  0.0000E+00  0.0000E+00  0.0000E+00  0.0000E+00
    -21.915  0.0000E+00  0.0000E+00  0.0000E+00  0.0000E+00  0.0000E+00  0.0000E+00  0.0000E+00  0.0000E+00  0.0000E+00
    -21.807  0.0000E+00  0.0000E+00  0.0000E+00  0.0000E+00  0.0000E+00  0.0000E+00  0.0000E+00  0.0000E+00  0.0000E+00
    -21.700  0.0000E+00  0.0000E+00  0.0000E+00  0.0000E+00  0.0000E+00  0.0000E+00  0.0000E+00  0.0000E+00  0.0000E+00
    -21.592  0.0000E+00  0.0000E+00  0.0000E+00  0.0000E+00  0.0000E+00  0.0000E+00  0.0000E+00  0.0000E+00  0.0000E+00
    -21.485  0.0000E+00  0.0000E+00  0.0000E+00  0.0000E+00  0.0000E+00  0.0000E+00  0.0000E+00  0.0000E+00  0.0000E+00
    -21.378  0.0000E+00  0.0000E+00  0.0000E+00  0.0000E+00  0.0000E+00  0.0000E+00  0.0000E+00  0.0000E+00  0.0000E+00
    -21.270  0.0000E+00  0.0000E+00  0.0000E+00  0.0000E+00  0.0000E+00  0.0000E+00  0.0000E+00  0.0000E+00  0.0000E+00
    -21.163  0.0000E+00  0.0000E+00  0.0000E+00  0.0000E+00  0.0000E+00  0.0000E+00  0.0000E+00  0.0000E+00  0.0000E+00
    -21.056  0.0000E+00  0.0000E+00  0.0000E+00  0.0000E+00  0.0000E+00  0.0000E+00  0.0000E+00  0.0000E+00  0.0000E+00
    -20.948  0.0000E+00  0.0000E+00  0.0000E+00  0.0000E+00  0.0000E+00  0.0000E+00  0.0000E+00  0.0000E+00  0.0000E+00
    -20.841  0.0000E+00  0.0000E+00  0.0000E+00  0.0000E+00  0.0000E+00  0.0000E+00  0.0000E+00  0.0000E+00  0.0000E+00
    -20.733  0.0000E+00  0.0000E+00  0.0000E+00  0.0000E+00  0.0000E+00  0.0000E+00  0.0000E+00  0.0000E+00  0.0000E+00
    -20.626  0.0000E+00  0.0000E+00  0.0000E+00  0.0000E+00  0.0000E+00  0.0000E+00  0.0000E+00  0.0000E+00  0.0000E+00
    -20.519  0.0000E+00  0.0000E+00  0.0000E+00  0.0000E+00  0.0000E+00  0.0000E+00  0.0000E+00  0.0000E+00  0.0000E+00
    -20.411  0.0000E+00  0.0000E+00  0.0000E+00  0.0000E+00  0.0000E+00  0.0000E+00  0.0000E+00  0.0000E+00  0.0000E+00