       N       E                     dE             d eps       ncg     rms          rms(c)
DAV:   1     0.251674230269E+04    0.25167E+04   -0.10353E+05  1840   0.134E+03
DAV:   2     0.141753919020E+03   -0.23750E+04   -0.22861E+04  1840   0.365E+02
DAV:   3    -0.825646011675E+02   -0.22432E+03   -0.20752E+03  2528   0.155E+02
DAV:   4    -0.110880859321E+03   -0.28316E+02   -0.27598E+02  2696   0.547E+01
DAV:   5    -0.112214345272E+03   -0.13335E+01   -0.12214E+01  2984   0.129E+01    0.355E+01
RMM:   6    -0.104934322782E+03    0.72800E+01   -0.24589E+02  1845   0.918E+01    0.207E+01
RMM:   7    -0.939239189431E+02    0.11010E+02   -0.43135E+01  1865   0.422E+01    0.380E+00
RMM:   8    -0.937798332196E+02    0.14409E+00   -0.23396E+00  1885   0.695E+00    0.332E+00
RMM:   9    -0.936892080486E+02    0.90625E-01   -0.88460E-01  1867   0.412E+00    0.210E+00
RMM:  10    -0.936132453914E+02    0.75963E-01   -0.21813E-01  1863   0.244E+00    0.686E-01
RMM:  11    -0.935999129955E+02    0.13332E-01   -0.44524E-02  1888   0.845E-01    0.437E-01
RMM:  12    -0.935931278584E+02    0.67851E-02   -0.19950E-02  1860   0.732E-01    0.219E-01
RMM:  13    -0.935900957889E+02    0.30321E-02   -0.38182E-03  1869   0.282E-01    0.100E-01
RMM:  14    -0.935883738220E+02    0.17220E-02   -0.21687E-03  1858   0.182E-01    0.932E-02
RMM:  15    -0.935876646316E+02    0.70919E-03   -0.12138E-03  1779   0.129E-01    0.420E-02
RMM:  16    -0.935884666953E+02   -0.80206E-03   -0.84617E-04  1597   0.100E-01    0.431E-02
RMM:  17    -0.935892636084E+02   -0.79691E-03   -0.25200E-04  1107   0.680E-02    0.323E-02
RMM:  18    -0.935904784153E+02   -0.12148E-02   -0.36955E-04  1211   0.691E-02    0.151E-02
RMM:  19    -0.935908678335E+02   -0.38942E-03   -0.77284E-05  1063   0.376E-02    0.111E-02
RMM:  20    -0.935911701966E+02   -0.30236E-03   -0.34835E-05  1059   0.222E-02    0.655E-03
RMM:  21    -0.935914128717E+02   -0.24268E-03   -0.31243E-05  1065   0.196E-02    0.443E-03
RMM:  22    -0.935914930214E+02   -0.80150E-04   -0.10918E-05  1019   0.154E-02
    1 T=   299. E= -.93166887E+02 F= -.93591493E+02 E0= -.93581965E+02  EK= 0.42461E+00 SP= 0.00E+00 SK= 0.28E-07
       N       E                     dE             d eps       ncg     rms          rms(c)
DAV:   1    -0.935873154831E+02    0.40974E-02   -0.23565E-01  1920   0.114E+00    0.799E-02
RMM:   2    -0.935877234403E+02   -0.40796E-03   -0.43567E-03  1920   0.272E-01    0.481E-02
RMM:   3    -0.935877507938E+02   -0.27353E-04   -0.48514E-04  1317   0.976E-02
    2 T=   296. E= -.93167099E+02 F= -.93587751E+02 E0= -.93578229E+02  EK= 0.42070E+00 SP= -.48E-04 SK= 0.69E-06
       N       E                     dE             d eps       ncg     rms          rms(c)
DAV:   1    -0.935840862964E+02    0.36371E-02   -0.17942E-03  2272   0.491E-01    0.433E-02
RMM:   2    -0.935841176527E+02   -0.31356E-04   -0.40502E-04  1160   0.986E-02
    3 T=   293. E= -.93167297E+02 F= -.93584118E+02 E0= -.93574619E+02  EK= 0.41706E+00 SP= -.24E-03 SK= 0.46E-05
       N       E                     dE             d eps       ncg     rms          rms(c)
DAV:   1    -0.935813556424E+02    0.27307E-02   -0.11970E-03  2304   0.369E-01    0.602E-02
RMM:   2    -0.935815133655E+02   -0.15772E-03   -0.17747E-03  1824   0.267E-01    0.936E-02
RMM:   3    -0.935813915913E+02    0.12177E-03   -0.32350E-04  1218   0.100E-01    0.220E-02
RMM:   4    -0.935814020186E+02   -0.10427E-04   -0.34308E-05   998   0.213E-02
    4 T=   292. E= -.93167333E+02 F= -.93581402E+02 E0= -.93571922E+02  EK= 0.41472E+00 SP= -.67E-03 SK= 0.16E-04
       N       E                     dE             d eps       ncg     rms          rms(c)
DAV:   1    -0.935802286290E+02    0.11630E-02   -0.86494E-04  2192   0.508E-01    0.705E-02
RMM:   2    -0.935803232554E+02   -0.94626E-04   -0.13086E-03  1830   0.225E-01    0.881E-02
RMM:   3    -0.935802027935E+02    0.12046E-03   -0.37563E-04  1278   0.113E-01    0.205E-02
RMM:   4    -0.935802157991E+02   -0.13006E-04   -0.41678E-05  1010   0.346E-02
    5 T=   291. E= -.93167261E+02 F= -.93580216E+02 E0= -.93570745E+02  EK= 0.41431E+00 SP= -.14E-02 SK= 0.36E-04
       N       E                     dE             d eps       ncg     rms          rms(c)
DAV:   1    -0.935808177053E+02   -0.61491E-03   -0.71715E-04  2064   0.538E-01    0.488E-02
RMM:   2    -0.935809005375E+02   -0.82832E-04   -0.66958E-04  1754   0.152E-01
    6 T=   293. E= -.93167244E+02 F= -.93580901E+02 E0= -.93571423E+02  EK= 0.41600E+00 SP= -.24E-02 SK= 0.63E-04
       N       E                     dE             d eps       ncg     rms          rms(c)
DAV:   1    -0.935833634796E+02   -0.25458E-02   -0.10896E-03  2048   0.603E-01    0.406E-02
RMM:   2    -0.935834792172E+02   -0.11574E-03   -0.72591E-04  1760   0.127E-01    0.404E-02
RMM:   3    -0.935834811721E+02   -0.19549E-05   -0.10051E-04  1020   0.613E-02
    7 T=   295. E= -.93167275E+02 F= -.93583481E+02 E0= -.93574025E+02  EK= 0.41981E+00 SP= -.37E-02 SK= 0.89E-04
       N       E                     dE             d eps       ncg     rms          rms(c)
DAV:   1    -0.935880009428E+02   -0.45217E-02   -0.17290E-03  2056   0.496E-01    0.453E-02
RMM:   2    -0.935880643188E+02   -0.63376E-04   -0.61859E-04  1630   0.154E-01
    8 T=   299. E= -.93167596E+02 F= -.93588064E+02 E0= -.93578618E+02  EK= 0.42551E+00 SP= -.51E-02 SK= 0.10E-03
       N       E                     dE             d eps       ncg     rms          rms(c)
DAV:   1    -0.935934833557E+02   -0.54824E-02   -0.58420E-04  1928   0.409E-01    0.536E-02
RMM:   2    -0.935935808232E+02   -0.97468E-04   -0.82997E-04  1721   0.131E-01
    9 T=   304. E= -.93167584E+02 F= -.93593581E+02 E0= -.93584112E+02  EK= 0.43252E+00 SP= -.66E-02 SK= 0.93E-04
       N       E                     dE             d eps       ncg     rms          rms(c)
DAV:   1    -0.935993405497E+02   -0.58572E-02   -0.32832E-03  2096   0.893E-01    0.338E-02
RMM:   2    -0.935994872032E+02   -0.14665E-03   -0.59109E-04  1450   0.127E-01    0.346E-02
RMM:   3    -0.935995165005E+02   -0.29297E-04   -0.14742E-04  1025   0.556E-02
   10 T=   309. E= -.93167482E+02 F= -.93599517E+02 E0= -.93590059E+02  EK= 0.43991E+00 SP= -.79E-02 SK= 0.64E-04
       N       E                     dE             d eps       ncg     rms          rms(c)
DAV:   1    -0.936052512861E+02   -0.57641E-02   -0.27898E-03  2000   0.527E-01    0.560E-02
RMM:   2    -0.936053619757E+02   -0.11069E-03   -0.58303E-04  1472   0.130E-01    0.544E-02
RMM:   3    -0.936053506257E+02    0.11350E-04   -0.18234E-04  1061   0.821E-02
   11 T=   314. E= -.93167559E+02 F= -.93605351E+02 E0= -.93595882E+02  EK= 0.44671E+00 SP= -.89E-02 SK= 0.27E-04
       N       E                     dE             d eps       ncg     rms          rms(c)
DAV:   1    -0.936101046024E+02   -0.47426E-02   -0.15129E-03  2072   0.611E-01    0.394E-02
RMM:   2    -0.936102788096E+02   -0.17421E-03   -0.61775E-04  1487   0.133E-01    0.507E-02
RMM:   3    -0.936102759322E+02    0.28774E-05   -0.14382E-04  1027   0.695E-02
   12 T=   318. E= -.93167663E+02 F= -.93610276E+02 E0= -.93600814E+02  EK= 0.45206E+00 SP= -.94E-02 SK= 0.17E-05
       N       E                     dE             d eps       ncg     rms          rms(c)
DAV:   1    -0.936134575902E+02   -0.31788E-02   -0.64658E-04  2008   0.351E-01    0.270E-02
RMM:   2    -0.936136247236E+02   -0.16713E-03   -0.61536E-04  1471   0.135E-01    0.343E-02
RMM:   3    -0.936136411259E+02   -0.16402E-04   -0.96651E-05  1019   0.517E-02
   13 T=   320. E= -.93167666E+02 F= -.93613641E+02 E0= -.93604180E+02  EK= 0.45528E+00 SP= -.93E-02 SK= 0.11E-04
       N       E                     dE             d eps       ncg     rms          rms(c)
DAV:   1    -0.936152095060E+02   -0.15848E-02   -0.40400E-04  1416   0.313E-01    0.172E-02
RMM:   2    -0.936152833041E+02   -0.73798E-04   -0.25730E-04  1120   0.759E-02
   14 T=   321. E= -.93167726E+02 F= -.93615283E+02 E0= -.93605819E+02  EK= 0.45597E+00 SP= -.85E-02 SK= 0.68E-04
       N       E                     dE             d eps       ncg     rms          rms(c)
DAV:   1    -0.936149557019E+02    0.25380E-03   -0.48511E-04  1736   0.382E-01    0.217E-02
RMM:   2    -0.936150354684E+02   -0.79767E-04   -0.37864E-04  1254   0.101E-01
   15 T=   319. E= -.93167740E+02 F= -.93615035E+02 E0= -.93605557E+02  EK= 0.45404E+00 SP= -.69E-02 SK= 0.17E-03
       N       E                     dE             d eps       ncg     rms          rms(c)
DAV:   1    -0.936130694430E+02    0.18863E-02   -0.73237E-04  2032   0.469E-01    0.219E-02
RMM:   2    -0.936131513729E+02   -0.81930E-04   -0.36517E-04  1187   0.102E-01
   16 T=   316. E= -.93167755E+02 F= -.93613151E+02 E0= -.93603656E+02  EK= 0.44977E+00 SP= -.47E-02 SK= 0.30E-03
       N       E                     dE             d eps       ncg     rms          rms(c)
DAV:   1    -0.936098781754E+02    0.31913E-02   -0.94885E-04  2104   0.453E-01    0.407E-02
RMM:   2    -0.936100312121E+02   -0.15304E-03   -0.11498E-03  1726   0.203E-01    0.609E-02
RMM:   3    -0.936100077699E+02    0.23442E-04   -0.15591E-04  1057   0.653E-02
   17 T=   312. E= -.93167771E+02 F= -.93610008E+02 E0= -.93600505E+02  EK= 0.44367E+00 SP= -.19E-02 SK= 0.43E-03
       N       E                     dE             d eps       ncg     rms          rms(c)
DAV:   1    -0.936053159325E+02    0.47153E-02   -0.10927E-03  2048   0.354E-01    0.480E-02
RMM:   2    -0.936055381796E+02   -0.22225E-03   -0.74847E-04  1676   0.149E-01    0.533E-02
RMM:   3    -0.936055628328E+02   -0.24653E-04   -0.16440E-04  1046   0.740E-02
   18 T=   307. E= -.93167229E+02 F= -.93605563E+02 E0= -.93596045E+02  EK= 0.43643E+00 SP= 0.14E-02 SK= 0.54E-03
       N       E                     dE             d eps       ncg     rms          rms(c)
DAV:   1    -0.936002925596E+02    0.52456E-02   -0.85863E-04  2008   0.518E-01    0.529E-02
RMM:   2    -0.936006766029E+02   -0.38404E-03   -0.11212E-03  1828   0.184E-01    0.757E-02
RMM:   3    -0.936006837238E+02   -0.71209E-05   -0.21584E-04  1086   0.837E-02
   19 T=   302. E= -.93166426E+02 F= -.93600684E+02 E0= -.93591164E+02  EK= 0.42883E+00 SP= 0.48E-02 SK= 0.58E-03
       N       E                     dE             d eps       ncg     rms          rms(c)
DAV:   1    -0.935964404554E+02    0.42361E-02   -0.80642E-04  2288   0.273E-01    0.251E-02
RMM:   2    -0.935968507501E+02   -0.41029E-03   -0.66996E-04  1513   0.126E-01    0.434E-02
RMM:   3    -0.935969139542E+02   -0.63204E-04   -0.10982E-04  1008   0.572E-02
   20 T=   297. E= -.93166317E+02 F= -.93596914E+02 E0= -.93587405E+02  EK= 0.42165E+00 SP= 0.84E-02 SK= 0.57E-03
       N       E                     dE             d eps       ncg     rms          rms(c)
DAV:   1    -0.935934549340E+02    0.33958E-02   -0.82517E-04  1984   0.281E-01    0.292E-02
RMM:   2    -0.935938763609E+02   -0.42143E-03   -0.43697E-04  1329   0.867E-02    0.290E-02
RMM:   3    -0.935940281664E+02   -0.15181E-03   -0.10923E-04  1035   0.600E-02    0.157E-02
RMM:   4    -0.935944285403E+02   -0.40037E-03   -0.45037E-05  1045   0.294E-02    0.764E-03
RMM:   5    -0.935947846493E+02   -0.35611E-03   -0.31782E-05  1050   0.252E-02    0.863E-03
RMM:   6    -0.935949846577E+02   -0.20001E-03   -0.17660E-05  1031   0.198E-02    0.430E-03
RMM:   7    -0.935952617925E+02   -0.27713E-03   -0.18998E-05  1049   0.144E-02    0.381E-03
RMM:   8    -0.935955609516E+02   -0.29916E-03   -0.25548E-05  1057   0.161E-02    0.316E-03
RMM:   9    -0.935956450478E+02   -0.84096E-04   -0.11611E-05  1025   0.141E-02
   21 T=   292. E= -.93167805E+02 F= -.93595645E+02 E0= -.93586139E+02  EK= 0.41554E+00 SP= 0.12E-01 SK= 0.51E-03
       N       E                     dE             d eps       ncg     rms          rms(c)
DAV:   1    -0.935920471691E+02    0.35138E-02   -0.48520E-04  1432   0.257E-01    0.255E-02
RMM:   2    -0.935924284413E+02   -0.38127E-03   -0.41501E-04  1278   0.917E-02    0.269E-02
RMM:   3    -0.935925704895E+02   -0.14205E-03   -0.11737E-04  1031   0.639E-02    0.167E-02
RMM:   4    -0.935929978249E+02   -0.42734E-03   -0.44568E-05  1036   0.325E-02    0.111E-02
RMM:   5    -0.935933714872E+02   -0.37366E-03   -0.31581E-05  1043   0.261E-02    0.983E-03
RMM:   6    -0.935936107267E+02   -0.23924E-03   -0.18706E-05  1034   0.209E-02    0.640E-03
RMM:   7    -0.935938185962E+02   -0.20787E-03   -0.14074E-05  1039   0.148E-02    0.494E-03
RMM:   8    -0.935939596958E+02   -0.14110E-03   -0.10669E-05  1022   0.139E-02    0.329E-03
RMM:   9    -0.935940638513E+02   -0.10416E-03   -0.11447E-05  1028   0.146E-02    0.313E-03
RMM:  10    -0.935940752151E+02   -0.11364E-04   -0.46877E-06   963   0.121E-02
   22 T=   289. E= -.93167752E+02 F= -.93594075E+02 E0= -.93584574E+02  EK= 0.41098E+00 SP= 0.15E-01 SK= 0.41E-03
       N       E                     dE             d eps       ncg     rms          rms(c)
DAV:   1    -0.935925454728E+02    0.15184E-02   -0.23658E-04  1328   0.226E-01    0.845E-03
RMM:   2    -0.935928299417E+02   -0.28447E-03   -0.11054E-04  1071   0.416E-02    0.105E-02
RMM:   3    -0.935929229428E+02   -0.93001E-04   -0.32139E-05  1002   0.298E-02
   23 T=   287. E= -.93166650E+02 F= -.93592923E+02 E0= -.93583429E+02  EK= 0.40828E+00 SP= 0.18E-01 SK= 0.30E-03
       N       E                     dE             d eps       ncg     rms          rms(c)
DAV:   1    -0.935922178895E+02    0.61205E-03   -0.27474E-04  1352   0.204E-01    0.114E-02
RMM:   2    -0.935927654610E+02   -0.54757E-03   -0.16161E-04  1111   0.497E-02    0.136E-02
RMM:   3    -0.935929815954E+02   -0.21613E-03   -0.53146E-05  1031   0.399E-02    0.103E-02
RMM:   4    -0.935937501429E+02   -0.76855E-03   -0.33680E-05  1052   0.221E-02    0.826E-03
RMM:   5    -0.935950126453E+02   -0.12625E-02   -0.61727E-05  1077   0.284E-02    0.109E-02
RMM:   6    -0.935952693938E+02   -0.25675E-03   -0.22804E-05  1041   0.227E-02    0.363E-03
RMM:   7    -0.935953524020E+02   -0.83008E-04   -0.99284E-06  1014   0.141E-02
   24 T=   287. E= -.93167631E+02 F= -.93595352E+02 E0= -.93585865E+02  EK= 0.40753E+00 SP= 0.20E-01 SK= 0.20E-03
       N       E                     dE             d eps       ncg     rms          rms(c)
DAV:   1    -0.935965624838E+02   -0.12931E-02   -0.27645E-04  1248   0.230E-01    0.162E-02
RMM:   2    -0.935969009256E+02   -0.33844E-03   -0.19414E-04  1113   0.659E-02    0.224E-02
RMM:   3    -0.935970039616E+02   -0.10304E-03   -0.68958E-05  1019   0.513E-02    0.968E-03
RMM:   4    -0.935976964168E+02   -0.69246E-03   -0.36015E-05  1056   0.211E-02    0.712E-03
RMM:   5    -0.935980065959E+02   -0.31018E-03   -0.21658E-05  1045   0.192E-02    0.531E-03
RMM:   6    -0.935980764812E+02   -0.69885E-04   -0.75994E-06  1002   0.123E-02
   25 T=   287. E= -.93167558E+02 F= -.93598076E+02 E0= -.93588603E+02  EK= 0.40857E+00 SP= 0.22E-01 SK= 0.12E-03
       N       E                     dE             d eps       ncg     rms          rms(c)
DAV:   1    -0.936012288026E+02   -0.32222E-02   -0.18464E-04  1328   0.199E-01    0.115E-02
RMM:   2    -0.936014523205E+02   -0.22352E-03   -0.13237E-04  1090   0.490E-02    0.147E-02
RMM:   3    -0.936015211087E+02   -0.68788E-04   -0.39215E-05  1013   0.348E-02
   26 T=   289. E= -.93167170E+02 F= -.93601521E+02 E0= -.93592066E+02  EK= 0.41106E+00 SP= 0.23E-01 SK= 0.68E-04
       N       E                     dE             d eps       ncg     rms          rms(c)
DAV:   1    -0.936055547051E+02   -0.41024E-02   -0.20647E-04  1344   0.215E-01    0.104E-02
RMM:   2    -0.936058227944E+02   -0.26809E-03   -0.18379E-04  1117   0.466E-02    0.133E-02
RMM:   3    -0.936059085644E+02   -0.85770E-04   -0.46118E-05  1027   0.365E-02
   27 T=   292. E= -.93167130E+02 F= -.93605909E+02 E0= -.93596470E+02  EK= 0.41452E+00 SP= 0.24E-01 SK= 0.35E-04
       N       E                     dE             d eps       ncg     rms          rms(c)
DAV:   1    -0.936102468678E+02   -0.44241E-02   -0.20700E-04  1352   0.237E-01    0.991E-03
RMM:   2    -0.936104807992E+02   -0.23393E-03   -0.13963E-04  1083   0.575E-02    0.140E-02
RMM:   3    -0.936105484436E+02   -0.67644E-04   -0.35782E-05  1007   0.278E-02
   28 T=   294. E= -.93167247E+02 F= -.93610548E+02 E0= -.93601127E+02  EK= 0.41834E+00 SP= 0.25E-01 SK= 0.18E-04
       N       E                     dE             d eps       ncg     rms          rms(c)
DAV:   1    -0.936146077246E+02   -0.41269E-02   -0.12826E-04  1248   0.196E-01    0.101E-02
RMM:   2    -0.936147577216E+02   -0.15000E-03   -0.20263E-04  1101   0.708E-02    0.201E-02
RMM:   3    -0.936147922015E+02   -0.34480E-04   -0.51664E-05  1003   0.361E-02
   29 T=   297. E= -.93167440E+02 F= -.93614792E+02 E0= -.93605385E+02  EK= 0.42190E+00 SP= 0.25E-01 SK= 0.97E-05
       N       E                     dE             d eps       ncg     rms          rms(c)
DAV:   1    -0.936170219259E+02   -0.22642E-02   -0.17567E-04  1304   0.226E-01    0.137E-02
RMM:   2    -0.936173261796E+02   -0.30425E-03   -0.19200E-04  1114   0.505E-02    0.202E-02
RMM:   3    -0.936174092030E+02   -0.83023E-04   -0.62371E-05  1025   0.448E-02
   30 T=   299. E= -.93167043E+02 F= -.93617409E+02 E0= -.93608022E+02  EK= 0.42452E+00 SP= 0.26E-01 SK= 0.65E-05
       N       E                     dE             d eps       ncg     rms          rms(c)
DAV:   1    -0.936191550882E+02   -0.18289E-02   -0.17394E-04  1328   0.256E-01    0.152E-02
RMM:   2    -0.936193426608E+02   -0.18757E-03   -0.20388E-04  1104   0.610E-02    0.189E-02
RMM:   3    -0.936194023660E+02   -0.59705E-04   -0.59369E-05  1011   0.392E-02
   31 T=   299. E= -.93167524E+02 F= -.93619402E+02 E0= -.93610043E+02  EK= 0.42569E+00 SP= 0.26E-01 SK= 0.53E-05
       N       E                     dE             d eps       ncg     rms          rms(c)
DAV:   1    -0.936193573001E+02   -0.14639E-04   -0.19619E-04  1344   0.215E-01    0.897E-03
RMM:   2    -0.936194507296E+02   -0.93430E-04   -0.16864E-04  1100   0.642E-02
   32 T=   299. E= -.93167875E+02 F= -.93619451E+02 E0= -.93610117E+02  EK= 0.42507E+00 SP= 0.27E-01 SK= 0.44E-05
       N       E                     dE             d eps       ncg     rms          rms(c)
DAV:   1    -0.936168172255E+02    0.25401E-02   -0.30577E-04  1552   0.304E-01    0.105E-02
RMM:   2    -0.936169700787E+02   -0.15285E-03   -0.20894E-04  1104   0.606E-02    0.163E-02
RMM:   3    -0.936170103662E+02   -0.40287E-04   -0.54052E-05  1011   0.382E-02
   33 T=   297. E= -.93167653E+02 F= -.93617010E+02 E0= -.93607700E+02  EK= 0.42256E+00 SP= 0.27E-01 SK= 0.26E-05
       N       E                     dE             d eps       ncg     rms          rms(c)
DAV:   1    -0.936125010105E+02    0.44691E-02   -0.20415E-04  1408   0.173E-01    0.182E-02
RMM:   2    -0.936127172657E+02   -0.21626E-03   -0.32477E-04  1149   0.101E-01    0.240E-02
RMM:   3    -0.936127741704E+02   -0.56905E-04   -0.56062E-05  1020   0.401E-02
   34 T=   294. E= -.93167378E+02 F= -.93612774E+02 E0= -.93603490E+02  EK= 0.41842E+00 SP= 0.27E-01 SK= 0.35E-06
       N       E                     dE             d eps       ncg     rms          rms(c)
DAV:   1    -0.936074671385E+02    0.52501E-02   -0.27400E-04  1304   0.243E-01    0.171E-02
RMM:   2    -0.936076015718E+02   -0.13443E-03   -0.26851E-04  1124   0.667E-02    0.206E-02
RMM:   3    -0.936076413411E+02   -0.39769E-04   -0.88131E-05  1010   0.508E-02
   35 T=   291. E= -.93167537E+02 F= -.93607641E+02 E0= -.93598380E+02  EK= 0.41314E+00 SP= 0.27E-01 SK= 0.15E-05
       N       E                     dE             d eps       ncg     rms          rms(c)
DAV:   1    -0.936009575332E+02    0.66440E-02   -0.43333E-04  1680   0.309E-01    0.172E-02
RMM:   2    -0.936011586140E+02   -0.20108E-03   -0.21517E-04  1113   0.750E-02    0.170E-02
RMM:   3    -0.936012310473E+02   -0.72433E-04   -0.52229E-05  1017   0.364E-02
   36 T=   287. E= -.93167185E+02 F= -.93601231E+02 E0= -.93591987E+02  EK= 0.40741E+00 SP= 0.27E-01 SK= 0.16E-04
       N       E                     dE             d eps       ncg     rms          rms(c)
DAV:   1    -0.935925009303E+02    0.86577E-02   -0.67441E-04  1872   0.273E-01    0.166E-02
RMM:   2    -0.935930537653E+02   -0.55284E-03   -0.28654E-04  1136   0.885E-02    0.185E-02
RMM:   3    -0.935932624917E+02   -0.20873E-03   -0.57852E-05  1035   0.361E-02    0.103E-02
RMM:   4    -0.935939902714E+02   -0.72778E-03   -0.44471E-05  1063   0.237E-02    0.773E-03
RMM:   5    -0.935946670516E+02   -0.67678E-03   -0.47609E-05  1071   0.232E-02    0.855E-03
RMM:   6    -0.935950439368E+02   -0.37689E-03   -0.31700E-05  1062   0.197E-02    0.472E-03
RMM:   7    -0.935953593822E+02   -0.31545E-03   -0.33496E-05  1060   0.177E-02    0.524E-03
RMM:   8    -0.935954896656E+02   -0.13028E-03   -0.15676E-05  1039   0.169E-02    0.294E-03
RMM:   9    -0.935955557862E+02   -0.66121E-04   -0.88302E-06   994   0.116E-02
   37 T=   283. E= -.93167680E+02 F= -.93595556E+02 E0= -.93586325E+02  EK= 0.40202E+00 SP= 0.26E-01 SK= 0.60E-04
       N       E                     dE             d eps       ncg     rms          rms(c)
DAV:   1    -0.935870276255E+02    0.84620E-02   -0.65284E-04  1480   0.280E-01    0.199E-02
RMM:   2    -0.935876888611E+02   -0.66124E-03   -0.33306E-04  1176   0.101E-01    0.305E-02
RMM:   3    -0.935878614995E+02   -0.17264E-03   -0.74928E-05  1033   0.476E-02    0.106E-02
RMM:   4    -0.935890672421E+02   -0.12057E-02   -0.77045E-05  1085   0.208E-02    0.662E-03
RMM:   5    -0.935893949329E+02   -0.32769E-03   -0.24677E-05  1049   0.238E-02    0.659E-03
RMM:   6    -0.935895989608E+02   -0.20403E-03   -0.16351E-05  1032   0.153E-02    0.504E-03
RMM:   7    -0.935897664784E+02   -0.16752E-03   -0.14664E-05  1034   0.131E-02    0.389E-03
RMM:   8    -0.935898613071E+02   -0.94829E-04   -0.12925E-05  1029   0.134E-02
   38 T=   280. E= -.93167570E+02 F= -.93589861E+02 E0= -.93580646E+02  EK= 0.39777E+00 SP= 0.24E-01 SK= 0.15E-03
       N       E                     dE             d eps       ncg     rms          rms(c)
DAV:   1    -0.935846756877E+02    0.50908E-02   -0.29807E-04  1392   0.231E-01    0.883E-03
RMM:   2    -0.935848973102E+02   -0.22162E-03   -0.15382E-04  1110   0.478E-02    0.130E-02
RMM:   3    -0.935849593430E+02   -0.62033E-04   -0.41500E-05  1026   0.336E-02
   39 T=   278. E= -.93167020E+02 F= -.93584959E+02 E0= -.93575758E+02  EK= 0.39540E+00 SP= 0.22E-01 SK= 0.30E-03
       N       E                     dE             d eps       ncg     rms          rms(c)
DAV:   1    -0.935816009142E+02    0.32964E-02   -0.39606E-04  1384   0.238E-01    0.955E-03
RMM:   2    -0.935818904090E+02   -0.28949E-03   -0.20063E-04  1121   0.611E-02    0.129E-02
RMM:   3    -0.935819744560E+02   -0.84047E-04   -0.50596E-05  1024   0.350E-02
   40 T=   278. E= -.93166736E+02 F= -.93581974E+02 E0= -.93572786E+02  EK= 0.39539E+00 SP= 0.19E-01 SK= 0.51E-03
       N       E                     dE             d eps       ncg     rms          rms(c)
DAV:   1    -0.935810981403E+02    0.79227E-03   -0.16897E-04  1352   0.252E-01    0.770E-03
RMM:   2    -0.935812636659E+02   -0.16553E-03   -0.17860E-04  1097   0.663E-02    0.184E-02
RMM:   3    -0.935812953512E+02   -0.31685E-04   -0.49388E-05  1013   0.331E-02
   41 T=   280. E= -.93167021E+02 F= -.93581295E+02 E0= -.93572115E+02  EK= 0.39784E+00 SP= 0.16E-01 SK= 0.77E-03
       N       E                     dE             d eps       ncg     rms          rms(c)
DAV:   1    -0.935816358098E+02   -0.37214E-03   -0.21247E-04  1344   0.298E-01    0.118E-02
RMM:   2    -0.935818019079E+02   -0.16610E-03   -0.15511E-04  1095   0.533E-02    0.154E-02
RMM:   3    -0.935818550004E+02   -0.53092E-04   -0.53635E-05  1014   0.392E-02
   42 T=   283. E= -.93167047E+02 F= -.93581855E+02 E0= -.93572676E+02  EK= 0.40249E+00 SP= 0.11E-01 SK= 0.10E-02
       N       E                     dE             d eps       ncg     rms          rms(c)
DAV:   1    -0.935824911278E+02   -0.68922E-03   -0.30560E-04  1344   0.323E-01    0.112E-02
RMM:   2    -0.935828569689E+02   -0.36584E-03   -0.21890E-04  1119   0.683E-02    0.179E-02
RMM:   3    -0.935829578179E+02   -0.10085E-03   -0.61018E-05  1020   0.368E-02    0.685E-03
RMM:   4    -0.935831952131E+02   -0.23740E-03   -0.24801E-05  1019   0.207E-02    0.721E-03
RMM:   5    -0.935835815843E+02   -0.38637E-03   -0.22060E-05  1030   0.210E-02    0.578E-03
RMM:   6    -0.935839437648E+02   -0.36218E-03   -0.16965E-05  1026   0.125E-02    0.434E-03
RMM:   7    -0.935840034682E+02   -0.59703E-04   -0.63287E-06   999   0.132E-02
   43 T=   287. E= -.93167660E+02 F= -.93584003E+02 E0= -.93574821E+02  EK= 0.40876E+00 SP= 0.63E-02 SK= 0.13E-02
       N       E                     dE             d eps       ncg     rms          rms(c)
DAV:   1    -0.935847616800E+02   -0.81792E-03   -0.31061E-04  1264   0.344E-01    0.140E-02
RMM:   2    -0.935850339688E+02   -0.27229E-03   -0.22701E-04  1133   0.581E-02    0.194E-02
RMM:   3    -0.935851141650E+02   -0.80196E-04   -0.67245E-05  1020   0.419E-02
   44 T=   292. E= -.93166939E+02 F= -.93585114E+02 E0= -.93575923E+02  EK= 0.41582E+00 SP= 0.89E-03 SK= 0.15E-02
       N       E                     dE             d eps       ncg     rms          rms(c)
DAV:   1    -0.935850672826E+02   -0.33314E-04   -0.23098E-04  1280   0.306E-01    0.144E-02
RMM:   2    -0.935855233141E+02   -0.45603E-03   -0.29598E-04  1165   0.619E-02    0.182E-02
RMM:   3    -0.935856791273E+02   -0.15581E-03   -0.86809E-05  1028   0.474E-02    0.103E-02
RMM:   4    -0.935861335780E+02   -0.45445E-03   -0.40061E-05  1033   0.262E-02    0.906E-03
RMM:   5    -0.935869990032E+02   -0.86543E-03   -0.66542E-05  1076   0.317E-02    0.108E-02
RMM:   6    -0.935871948701E+02   -0.19587E-03   -0.26522E-05  1046   0.208E-02    0.310E-03
RMM:   7    -0.935872994736E+02   -0.10460E-03   -0.13553E-05  1019   0.147E-02    0.642E-03
RMM:   8    -0.935873539603E+02   -0.54487E-04   -0.70385E-06  1006   0.141E-02
   45 T=   297. E= -.93167834E+02 F= -.93587354E+02 E0= -.93578167E+02  EK= 0.42275E+00 SP= -.48E-02 SK= 0.16E-02
       N       E                     dE             d eps       ncg     rms          rms(c)
DAV:   1    -0.935845164964E+02    0.27830E-02   -0.37181E-04  1328   0.393E-01    0.143E-02
RMM:   2    -0.935852028976E+02   -0.68640E-03   -0.25646E-04  1137   0.592E-02    0.192E-02
RMM:   3    -0.935854197771E+02   -0.21688E-03   -0.72697E-05  1031   0.451E-02    0.107E-02
RMM:   4    -0.935862696379E+02   -0.84986E-03   -0.54059E-05  1064   0.226E-02    0.814E-03
RMM:   5    -0.935873978326E+02   -0.11282E-02   -0.13321E-04  1113   0.280E-02    0.936E-03
RMM:   6    -0.935874622943E+02   -0.64462E-04   -0.22551E-05  1035   0.222E-02
   46 T=   301. E= -.93167853E+02 F= -.93587462E+02 E0= -.93578275E+02  EK= 0.42860E+00 SP= -.11E-01 SK= 0.16E-02
       N       E                     dE             d eps       ncg     rms          rms(c)
DAV:   1    -0.935849202122E+02    0.24776E-02   -0.32566E-04  1304   0.381E-01    0.129E-02
RMM:   2    -0.935851615592E+02   -0.24135E-03   -0.23059E-04  1136   0.440E-02    0.117E-02
RMM:   3    -0.935852589904E+02   -0.97431E-04   -0.46659E-05  1021   0.359E-02
   47 T=   304. E= -.93167465E+02 F= -.93585259E+02 E0= -.93576064E+02  EK= 0.43257E+00 SP= -.16E-01 SK= 0.15E-02
       N       E                     dE             d eps       ncg     rms          rms(c)
DAV:   1    -0.935807855946E+02    0.43760E-02   -0.32363E-04  1352   0.326E-01    0.939E-03
RMM:   2    -0.935810656863E+02   -0.28009E-03   -0.22827E-04  1131   0.588E-02    0.112E-02
RMM:   3    -0.935811552306E+02   -0.89544E-04   -0.44805E-05  1020   0.318E-02
   48 T=   305. E= -.93167448E+02 F= -.93581155E+02 E0= -.93571952E+02  EK= 0.43414E+00 SP= -.22E-01 SK= 0.14E-02
       N       E                     dE             d eps       ncg     rms          rms(c)
DAV:   1    -0.935750439658E+02    0.60217E-02   -0.21224E-04  1328   0.376E-01    0.816E-03
RMM:   2    -0.935751791250E+02   -0.13516E-03   -0.13490E-04  1085   0.352E-02    0.110E-02
RMM:   3    -0.935752164723E+02   -0.37347E-04   -0.35913E-05   999   0.327E-02
   49 T=   305. E= -.93167945E+02 F= -.93575216E+02 E0= -.93566010E+02  EK= 0.43319E+00 SP= -.27E-01 SK= 0.13E-02
       N       E                     dE             d eps       ncg     rms          rms(c)
DAV:   1    -0.935663490558E+02    0.88301E-02   -0.24173E-04  1320   0.420E-01    0.900E-03
RMM:   2    -0.935665014631E+02   -0.15241E-03   -0.19258E-04  1117   0.509E-02    0.115E-02
RMM:   3    -0.935665452162E+02   -0.43753E-04   -0.48126E-05   999   0.339E-02
   50 T=   302. E= -.93167872E+02 F= -.93566545E+02 E0= -.93557337E+02  EK= 0.42987E+00 SP= -.32E-01 SK= 0.13E-02
       N       E                     dE             d eps       ncg     rms          rms(c)
DAV:   1    -0.935537530193E+02    0.12748E-01   -0.30569E-04  1280   0.337E-01    0.142E-02
RMM:   2    -0.935543666521E+02   -0.61363E-03   -0.29586E-04  1165   0.758E-02    0.196E-02
RMM:   3    -0.935545224042E+02   -0.15575E-03   -0.75214E-05  1026   0.406E-02    0.124E-02
RMM:   4    -0.935550978609E+02   -0.57546E-03   -0.41065E-05  1042   0.259E-02    0.990E-03
RMM:   5    -0.935560835456E+02   -0.98568E-03   -0.80035E-05  1097   0.280E-02    0.957E-03
RMM:   6    -0.935561805353E+02   -0.96990E-04   -0.19262E-05  1028   0.215E-02
   51 T=   299. E= -.93167851E+02 F= -.93556181E+02 E0= -.93546972E+02  EK= 0.42468E+00 SP= -.38E-01 SK= 0.13E-02
       N       E                     dE             d eps       ncg     rms          rms(c)
DAV:   1    -0.935436303684E+02    0.12453E-01   -0.48515E-04  1504   0.390E-01    0.227E-02
RMM:   2    -0.935439706447E+02   -0.34028E-03   -0.31728E-04  1171   0.534E-02    0.197E-02
RMM:   3    -0.935441328940E+02   -0.16225E-03   -0.81098E-05  1021   0.493E-02    0.163E-02
RMM:   4    -0.935445090744E+02   -0.37618E-03   -0.29180E-05  1030   0.236E-02    0.469E-03
RMM:   5    -0.935446773595E+02   -0.16829E-03   -0.12782E-05  1011   0.166E-02    0.612E-03
RMM:   6    -0.935447297698E+02   -0.52410E-04   -0.72309E-06   992   0.147E-02
   52 T=   294. E= -.93167910E+02 F= -.93544730E+02 E0= -.93535524E+02  EK= 0.41830E+00 SP= -.43E-01 SK= 0.13E-02
       N       E                     dE             d eps       ncg     rms          rms(c)
DAV:   1    -0.935319318381E+02    0.12746E-01   -0.42740E-04  1392   0.351E-01    0.155E-02
RMM:   2    -0.935321006649E+02   -0.16883E-03   -0.27229E-04  1142   0.654E-02    0.200E-02
RMM:   3    -0.935321510093E+02   -0.50344E-04   -0.75137E-05  1029   0.447E-02
   53 T=   289. E= -.93167357E+02 F= -.93532151E+02 E0= -.93522951E+02  EK= 0.41152E+00 SP= -.48E-01 SK= 0.15E-02
       N       E                     dE             d eps       ncg     rms          rms(c)
DAV:   1    -0.935196967196E+02    0.12404E-01   -0.43920E-04  1288   0.325E-01    0.126E-02
RMM:   2    -0.935198974203E+02   -0.20070E-03   -0.28593E-04  1134   0.623E-02    0.148E-02
RMM:   3    -0.935199720488E+02   -0.74629E-04   -0.87455E-05  1020   0.471E-02
   54 T=   285. E= -.93167047E+02 F= -.93519972E+02 E0= -.93510781E+02  EK= 0.40517E+00 SP= -.54E-01 SK= 0.17E-02
       N       E                     dE             d eps       ncg     rms          rms(c)
DAV:   1    -0.935083987867E+02    0.11499E-01   -0.18579E-04  1312   0.317E-01    0.120E-02
RMM:   2    -0.935086476847E+02   -0.24890E-03   -0.20142E-04  1112   0.623E-02    0.168E-02
RMM:   3    -0.935087204750E+02   -0.72790E-04   -0.62915E-05  1006   0.389E-02
   55 T=   281. E= -.93166899E+02 F= -.93508720E+02 E0= -.93499537E+02  EK= 0.40000E+00 SP= -.60E-01 SK= 0.21E-02
       N       E                     dE             d eps       ncg     rms          rms(c)
DAV:   1    -0.934990117955E+02    0.96359E-02   -0.24160E-04  1352   0.305E-01    0.998E-03
RMM:   2    -0.934992284913E+02   -0.21670E-03   -0.24906E-04  1116   0.812E-02    0.186E-02
RMM:   3    -0.934992753545E+02   -0.46863E-04   -0.60406E-05  1010   0.338E-02
   56 T=   279. E= -.93167318E+02 F= -.93499275E+02 E0= -.93490100E+02  EK= 0.39663E+00 SP= -.67E-01 SK= 0.25E-02
       N       E                     dE             d eps       ncg     rms          rms(c)
DAV:   1    -0.934903762575E+02    0.88522E-02   -0.28744E-04  1344   0.294E-01    0.156E-02
RMM:   2    -0.934906223224E+02   -0.24606E-03   -0.32420E-04  1180   0.864E-02    0.293E-02
RMM:   3    -0.934906679313E+02   -0.45609E-04   -0.10488E-04  1014   0.533E-02
   57 T=   278. E= -.93167042E+02 F= -.93490668E+02 E0= -.93481499E+02  EK= 0.39543E+00 SP= -.75E-01 SK= 0.31E-02
       N       E                     dE             d eps       ncg     rms          rms(c)
DAV:   1    -0.934811186159E+02    0.95037E-02   -0.30702E-04  1456   0.297E-01    0.206E-02
RMM:   2    -0.934816583049E+02   -0.53969E-03   -0.27096E-04  1130   0.753E-02    0.248E-02
RMM:   3    -0.934818650636E+02   -0.20676E-03   -0.97842E-05  1029   0.547E-02    0.131E-02
RMM:   4    -0.934828530370E+02   -0.98797E-03   -0.65863E-05  1059   0.338E-02    0.132E-02
RMM:   5    -0.934838916262E+02   -0.10386E-02   -0.70757E-05  1078   0.281E-02    0.115E-02
RMM:   6    -0.934842483997E+02   -0.35677E-03   -0.34257E-05  1046   0.285E-02    0.694E-03
RMM:   7    -0.934846851293E+02   -0.43673E-03   -0.35211E-05  1058   0.189E-02    0.451E-03
RMM:   8    -0.934848202469E+02   -0.13512E-03   -0.16135E-05  1022   0.197E-02    0.488E-03
RMM:   9    -0.934848869549E+02   -0.66708E-04   -0.96950E-06  1012   0.135E-02
   58 T=   279. E= -.93168009E+02 F= -.93484887E+02 E0= -.93475744E+02  EK= 0.39653E+00 SP= -.83E-01 SK= 0.37E-02
       N       E                     dE             d eps       ncg     rms          rms(c)
DAV:   1    -0.934768108245E+02    0.80094E-02   -0.57281E-04  1648   0.316E-01    0.202E-02
RMM:   2    -0.934772426990E+02   -0.43187E-03   -0.29258E-04  1165   0.767E-02    0.229E-02
RMM:   3    -0.934774147541E+02   -0.17206E-03   -0.96832E-05  1030   0.511E-02    0.153E-02
RMM:   4    -0.934781676566E+02   -0.75290E-03   -0.90692E-05  1075   0.351E-02    0.123E-02
RMM:   5    -0.934789771254E+02   -0.80947E-03   -0.13110E-04  1097   0.342E-02    0.123E-02
RMM:   6    -0.934792218002E+02   -0.24467E-03   -0.52219E-05  1061   0.301E-02    0.519E-03
RMM:   7    -0.934794068238E+02   -0.18502E-03   -0.39303E-05  1055   0.192E-02    0.576E-03
RMM:   8    -0.934794744408E+02   -0.67617E-04   -0.15785E-05  1024   0.191E-02
   59 T=   281. E= -.93167955E+02 F= -.93479474E+02 E0= -.93470353E+02  EK= 0.39976E+00 SP= -.93E-01 SK= 0.43E-02
       N       E                     dE             d eps       ncg     rms          rms(c)
DAV:   1    -0.934741383681E+02    0.52685E-02   -0.20611E-04  1328   0.228E-01    0.786E-03
RMM:   2    -0.934744233828E+02   -0.28501E-03   -0.16404E-04  1109   0.536E-02    0.108E-02
RMM:   3    -0.934745024633E+02   -0.79081E-04   -0.37710E-05  1023   0.302E-02
   60 T=   285. E= -.93167371E+02 F= -.93474502E+02 E0= -.93465397E+02  EK= 0.40467E+00 SP= -.10E+00 SK= 0.49E-02
       N       E                     dE             d eps       ncg     rms          rms(c)
DAV:   1    -0.934695429767E+02    0.48804E-02   -0.47565E-04  1360   0.223E-01    0.105E-02
RMM:   2    -0.934698893875E+02   -0.34641E-03   -0.26197E-04  1141   0.605E-02    0.132E-02
RMM:   3    -0.934700109966E+02   -0.12161E-03   -0.62443E-05  1029   0.384E-02    0.957E-03
RMM:   4    -0.934702711589E+02   -0.26016E-03   -0.31789E-05  1027   0.238E-02    0.753E-03
RMM:   5    -0.934708803445E+02   -0.60919E-03   -0.61298E-05  1078   0.244E-02    0.110E-02
RMM:   6    -0.934711423732E+02   -0.26203E-03   -0.43347E-05  1068   0.245E-02    0.475E-03
RMM:   7    -0.934712028775E+02   -0.60504E-04   -0.16699E-05  1023   0.162E-02
   61 T=   289. E= -.93168104E+02 F= -.93471203E+02 E0= -.93462127E+02  EK= 0.41057E+00 SP= -.11E+00 SK= 0.53E-02
       N       E                     dE             d eps       ncg     rms          rms(c)
DAV:   1    -0.934644565727E+02    0.66858E-02   -0.27806E-04  1336   0.244E-01    0.164E-02
RMM:   2    -0.934650613164E+02   -0.60474E-03   -0.28920E-04  1133   0.798E-02    0.242E-02
RMM:   3    -0.934652243220E+02   -0.16301E-03   -0.71198E-05  1028   0.487E-02    0.904E-03
RMM:   4    -0.934661978982E+02   -0.97358E-03   -0.89204E-05  1080   0.216E-02    0.752E-03
RMM:   5    -0.934667347773E+02   -0.53688E-03   -0.66695E-05  1074   0.264E-02    0.722E-03
RMM:   6    -0.934668497179E+02   -0.11494E-03   -0.19729E-05  1037   0.168E-02    0.290E-03
RMM:   7    -0.934669538745E+02   -0.10416E-03   -0.18793E-05  1006   0.121E-02    0.380E-03
RMM:   8    -0.934669862762E+02   -0.32402E-04   -0.70766E-06   978   0.123E-02
   62 T=   293. E= -.93168306E+02 F= -.93466986E+02 E0= -.93457940E+02  EK= 0.41662E+00 SP= -.12E+00 SK= 0.57E-02
       N       E                     dE             d eps       ncg     rms          rms(c)
DAV:   1    -0.934603829831E+02    0.65709E-02   -0.26076E-04  1456   0.225E-01    0.101E-02
RMM:   2    -0.934606500680E+02   -0.26708E-03   -0.16632E-04  1114   0.572E-02    0.149E-02
RMM:   3    -0.934607213407E+02   -0.71273E-04   -0.41930E-05  1023   0.339E-02
   63 T=   297. E= -.93167647E+02 F= -.93460721E+02 E0= -.93451702E+02  EK= 0.42186E+00 SP= -.13E+00 SK= 0.58E-02
       N       E                     dE             d eps       ncg     rms          rms(c)
DAV:   1    -0.934524347622E+02    0.82153E-02   -0.18826E-04  1368   0.232E-01    0.109E-02
RMM:   2    -0.934527967882E+02   -0.36203E-03   -0.20098E-04  1128   0.441E-02    0.129E-02
RMM:   3    -0.934529209909E+02   -0.12420E-03   -0.49965E-05  1024   0.376E-02    0.828E-03
RMM:   4    -0.934533265554E+02   -0.40556E-03   -0.27940E-05  1031   0.221E-02    0.613E-03
RMM:   5    -0.934538442884E+02   -0.51773E-03   -0.40725E-05  1066   0.190E-02    0.632E-03
RMM:   6    -0.934538848900E+02   -0.40602E-04   -0.10613E-05  1019   0.178E-02
   64 T=   299. E= -.93168396E+02 F= -.93453885E+02 E0= -.93444896E+02  EK= 0.42535E+00 SP= -.15E+00 SK= 0.59E-02
       N       E                     dE             d eps       ncg     rms          rms(c)
DAV:   1    -0.934420368820E+02    0.11807E-01   -0.14875E-04  1264   0.245E-01    0.146E-02
RMM:   2    -0.934424684406E+02   -0.43156E-03   -0.16316E-04  1108   0.402E-02    0.153E-02
RMM:   3    -0.934426244092E+02   -0.15597E-03   -0.45734E-05  1024   0.388E-02    0.925E-03
RMM:   4    -0.934431745600E+02   -0.55015E-03   -0.30406E-05  1055   0.204E-02    0.595E-03
RMM:   5    -0.934434759034E+02   -0.30134E-03   -0.14233E-05  1015   0.126E-02    0.424E-03
RMM:   6    -0.934436383297E+02   -0.16243E-03   -0.83833E-06  1012   0.120E-02    0.333E-03
RMM:   7    -0.934437558552E+02   -0.11753E-03   -0.66218E-06  1003   0.108E-02    0.193E-03
RMM:   8    -0.934438065718E+02   -0.50717E-04   -0.36925E-06   972   0.980E-03
   65 T=   300. E= -.93168488E+02 F= -.93443807E+02 E0= -.93434847E+02  EK= 0.42635E+00 SP= -.16E+00 SK= 0.59E-02
       N       E                     dE             d eps       ncg     rms          rms(c)
DAV:   1    -0.934303416410E+02    0.13414E-01   -0.11356E-04  1328   0.211E-01    0.725E-03
RMM:   2    -0.934304507290E+02   -0.10909E-03   -0.10275E-04  1085   0.335E-02    0.822E-03
RMM:   3    -0.934304857615E+02   -0.35033E-04   -0.27677E-05  1009   0.291E-02
   66 T=   299. E= -.93168199E+02 F= -.93430486E+02 E0= -.93421555E+02  EK= 0.42447E+00 SP= -.17E+00 SK= 0.60E-02
       N       E                     dE             d eps       ncg     rms          rms(c)
DAV:   1    -0.934139953204E+02    0.16455E-01   -0.15060E-04  1312   0.203E-01    0.812E-03
RMM:   2    -0.934141920966E+02   -0.19678E-03   -0.17629E-04  1114   0.495E-02    0.130E-02
RMM:   3    -0.934142418405E+02   -0.49744E-04   -0.36509E-05  1016   0.307E-02
   67 T=   295. E= -.93167789E+02 F= -.93414242E+02 E0= -.93405341E+02  EK= 0.41976E+00 SP= -.18E+00 SK= 0.61E-02
       N       E                     dE             d eps       ncg     rms          rms(c)
DAV:   1    -0.933956026961E+02    0.18589E-01   -0.11679E-04  1344   0.205E-01    0.124E-02
RMM:   2    -0.933958084800E+02   -0.20578E-03   -0.13415E-04  1074   0.421E-02    0.162E-02
RMM:   3    -0.933958628224E+02   -0.54342E-04   -0.39781E-05   999   0.359E-02
   68 T=   290. E= -.93167597E+02 F= -.93395863E+02 E0= -.93386992E+02  EK= 0.41271E+00 SP= -.19E+00 SK= 0.64E-02
       N       E                     dE             d eps       ncg     rms          rms(c)
DAV:   1    -0.933762435139E+02    0.19565E-01   -0.98649E-05  1272   0.230E-01    0.146E-02
RMM:   2    -0.933763603422E+02   -0.11683E-03   -0.17440E-04  1095   0.526E-02    0.161E-02
RMM:   3    -0.933763947813E+02   -0.34439E-04   -0.38519E-05  1003   0.314E-02
   69 T=   284. E= -.93167786E+02 F= -.93376395E+02 E0= -.93367554E+02  EK= 0.40430E+00 SP= -.20E+00 SK= 0.69E-02
       N       E                     dE             d eps       ncg     rms          rms(c)
DAV:   1    -0.933559862225E+02    0.20374E-01   -0.15697E-04  1272   0.193E-01    0.155E-02
RMM:   2    -0.933561605115E+02   -0.17429E-03   -0.18627E-04  1080   0.677E-02    0.177E-02
RMM:   3    -0.933562160292E+02   -0.55518E-04   -0.66650E-05  1011   0.431E-02
   70 T=   278. E= -.93167502E+02 F= -.93356216E+02 E0= -.93347402E+02  EK= 0.39595E+00 SP= -.21E+00 SK= 0.76E-02
       N       E                     dE             d eps       ncg     rms          rms(c)
DAV:   1    -0.933363701105E+02    0.19790E-01   -0.27239E-04  1360   0.269E-01    0.221E-02
RMM:   2    -0.933366860441E+02   -0.31593E-03   -0.18485E-04  1099   0.614E-02    0.221E-02
RMM:   3    -0.933367963496E+02   -0.11031E-03   -0.78087E-05  1026   0.486E-02    0.135E-02
RMM:   4    -0.933371656070E+02   -0.36926E-03   -0.44662E-05  1052   0.284E-02    0.649E-03
RMM:   5    -0.933373436373E+02   -0.17803E-03   -0.20447E-05  1027   0.187E-02    0.492E-03
RMM:   6    -0.933374609809E+02   -0.11734E-03   -0.12285E-05  1022   0.152E-02    0.410E-03
RMM:   7    -0.933375835838E+02   -0.12260E-03   -0.88125E-06  1000   0.110E-02    0.247E-03
RMM:   8    -0.933377065188E+02   -0.12293E-03   -0.98743E-06  1015   0.123E-02    0.262E-03
RMM:   9    -0.933377208762E+02   -0.14357E-04   -0.33017E-06   934   0.984E-03
   71 T=   274. E= -.93167851E+02 F= -.93337721E+02 E0= -.93328928E+02  EK= 0.38911E+00 SP= -.23E+00 SK= 0.87E-02
       N       E                     dE             d eps       ncg     rms          rms(c)
DAV:   1    -0.933186550466E+02    0.19051E-01   -0.34192E-04  1360   0.266E-01    0.209E-02
RMM:   2    -0.933191880465E+02   -0.53300E-03   -0.29606E-04  1137   0.862E-02    0.265E-02
RMM:   3    -0.933193497445E+02   -0.16170E-03   -0.93092E-05  1023   0.502E-02    0.130E-02
RMM:   4    -0.933201187864E+02   -0.76904E-03   -0.64680E-05  1066   0.312E-02    0.896E-03
RMM:   5    -0.933204771731E+02   -0.35839E-03   -0.34811E-05  1038   0.268E-02    0.726E-03
RMM:   6    -0.933205358565E+02   -0.58683E-04   -0.14468E-05  1012   0.183E-02
   72 T=   271. E= -.93167317E+02 F= -.93320536E+02 E0= -.93311761E+02  EK= 0.38515E+00 SP= -.24E+00 SK= 0.10E-01
       N       E                     dE             d eps       ncg     rms          rms(c)
DAV:   1    -0.933064145566E+02    0.14063E-01   -0.15041E-04  1312   0.228E-01    0.861E-03
RMM:   2    -0.933065908683E+02   -0.17631E-03   -0.12734E-04  1100   0.507E-02    0.104E-02
RMM:   3    -0.933066495452E+02   -0.58677E-04   -0.38932E-05  1019   0.309E-02
   73 T=   271. E= -.93167032E+02 F= -.93306650E+02 E0= -.93297892E+02  EK= 0.38509E+00 SP= -.26E+00 SK= 0.11E-01
       N       E                     dE             d eps       ncg     rms          rms(c)
DAV:   1    -0.932963001123E+02    0.10291E-01   -0.11842E-04  1296   0.223E-01    0.709E-03
RMM:   2    -0.932964856353E+02   -0.18552E-03   -0.12087E-04  1088   0.504E-02    0.103E-02
RMM:   3    -0.932965487574E+02   -0.63122E-04   -0.35513E-05  1018   0.295E-02
   74 T=   274. E= -.93167132E+02 F= -.93296549E+02 E0= -.93287808E+02  EK= 0.38944E+00 SP= -.27E+00 SK= 0.13E-01
       N       E                     dE             d eps       ncg     rms          rms(c)
DAV:   1    -0.932893709366E+02    0.71147E-02   -0.11898E-04  1336   0.290E-01    0.920E-03
RMM:   2    -0.932895985420E+02   -0.22761E-03   -0.16340E-04  1086   0.646E-02    0.154E-02
RMM:   3    -0.932896562759E+02   -0.57734E-04   -0.47164E-05  1012   0.320E-02
   75 T=   280. E= -.93167310E+02 F= -.93289656E+02 E0= -.93280931E+02  EK= 0.39801E+00 SP= -.29E+00 SK= 0.14E-01
       N       E                     dE             d eps       ncg     rms          rms(c)
DAV:   1    -0.932848940228E+02    0.47045E-02   -0.14015E-04  1232   0.307E-01    0.124E-02
RMM:   2    -0.932850610303E+02   -0.16701E-03   -0.20448E-04  1095   0.667E-02    0.220E-02
RMM:   3    -0.932851036780E+02   -0.42648E-04   -0.80439E-05  1022   0.475E-02
   76 T=   288. E= -.93167541E+02 F= -.93285104E+02 E0= -.93276393E+02  EK= 0.40994E+00 SP= -.31E+00 SK= 0.15E-01
       N       E                     dE             d eps       ncg     rms          rms(c)
DAV:   1    -0.932811905476E+02    0.38705E-02   -0.22721E-04  1400   0.330E-01    0.107E-02
RMM:   2    -0.932813374646E+02   -0.14692E-03   -0.18107E-04  1093   0.601E-02    0.119E-02
RMM:   3    -0.932813904948E+02   -0.53030E-04   -0.62134E-05  1018   0.375E-02
   77 T=   298. E= -.93167571E+02 F= -.93281390E+02 E0= -.93272695E+02  EK= 0.42384E+00 SP= -.33E+00 SK= 0.16E-01
       N       E                     dE             d eps       ncg     rms          rms(c)
DAV:   1    -0.932772267730E+02    0.41107E-02   -0.23856E-04  1360   0.329E-01    0.123E-02
RMM:   2    -0.932773865729E+02   -0.15980E-03   -0.26757E-04  1123   0.912E-02    0.256E-02
RMM:   3    -0.932774133100E+02   -0.26737E-04   -0.56753E-05  1007   0.382E-02
   78 T=   308. E= -.93167687E+02 F= -.93277413E+02 E0= -.93268729E+02  EK= 0.43805E+00 SP= -.34E+00 SK= 0.15E-01
       N       E                     dE             d eps       ncg     rms          rms(c)
DAV:   1    -0.932716888243E+02    0.56977E-02   -0.17418E-04  1360   0.383E-01    0.154E-02
RMM:   2    -0.932718769813E+02   -0.18816E-03   -0.26717E-04  1124   0.739E-02    0.256E-02
RMM:   3    -0.932719196801E+02   -0.42699E-04   -0.96458E-05  1012   0.553E-02
   79 T=   317. E= -.93167913E+02 F= -.93271920E+02 E0= -.93263243E+02  EK= 0.45091E+00 SP= -.36E+00 SK= 0.15E-01
       N       E                     dE             d eps       ncg     rms          rms(c)
DAV:   1    -0.932633900197E+02    0.84870E-02   -0.15008E-04  1248   0.375E-01    0.129E-02
RMM:   2    -0.932635890409E+02   -0.19902E-03   -0.22608E-04  1118   0.674E-02    0.172E-02
RMM:   3    -0.932636493447E+02   -0.60304E-04   -0.77184E-05  1018   0.448E-02
   80 T=   324. E= -.93167924E+02 F= -.93263649E+02 E0= -.93254977E+02  EK= 0.46105E+00 SP= -.38E+00 SK= 0.13E-01
       N       E                     dE             d eps       ncg     rms          rms(c)
DAV:   1    -0.932510269837E+02    0.12562E-01   -0.20631E-04  1288   0.360E-01    0.120E-02
RMM:   2    -0.932513637428E+02   -0.33676E-03   -0.26633E-04  1125   0.822E-02    0.192E-02
RMM:   3    -0.932514561863E+02   -0.92443E-04   -0.63274E-05  1016   0.378E-02
   81 T=   329. E= -.93167025E+02 F= -.93251456E+02 E0= -.93242790E+02  EK= 0.46759E+00 SP= -.40E+00 SK= 0.12E-01
       N       E                     dE             d eps       ncg     rms          rms(c)
DAV:   1    -0.932360386051E+02    0.15325E-01   -0.19704E-04  1368   0.347E-01    0.148E-02
RMM:   2    -0.932364801471E+02   -0.44154E-03   -0.25690E-04  1119   0.695E-02    0.181E-02
RMM:   3    -0.932366418896E+02   -0.16174E-03   -0.77822E-05  1026   0.440E-02    0.123E-02
RMM:   4    -0.932369457732E+02   -0.30388E-03   -0.30740E-05  1023   0.245E-02    0.100E-02
RMM:   5    -0.932378201742E+02   -0.87440E-03   -0.41065E-05  1058   0.279E-02    0.116E-02
RMM:   6    -0.932381808349E+02   -0.36066E-03   -0.19699E-05  1033   0.195E-02    0.706E-03
RMM:   7    -0.932384914033E+02   -0.31057E-03   -0.15230E-05  1032   0.173E-02    0.759E-03
RMM:   8    -0.932386882445E+02   -0.19684E-03   -0.11356E-05  1032   0.155E-02    0.292E-03
RMM:   9    -0.932387638623E+02   -0.75618E-04   -0.73158E-06  1010   0.114E-02
   82 T=   331. E= -.93168534E+02 F= -.93238764E+02 E0= -.93230117E+02  EK= 0.47029E+00 SP= -.41E+00 SK= 0.10E-01
       N       E                     dE             d eps       ncg     rms          rms(c)
DAV:   1    -0.932199285745E+02    0.18760E-01   -0.40103E-04  1288   0.385E-01    0.276E-02
RMM:   2    -0.932202476042E+02   -0.31903E-03   -0.34805E-04  1178   0.763E-02    0.267E-02
RMM:   3    -0.932203952090E+02   -0.14760E-03   -0.13220E-04  1034   0.653E-02    0.204E-02
RMM:   4    -0.932209235315E+02   -0.52832E-03   -0.63301E-05  1050   0.375E-02    0.122E-02
RMM:   5    -0.932214628721E+02   -0.53934E-03   -0.47181E-05  1061   0.285E-02    0.121E-02
RMM:   6    -0.932216764028E+02   -0.21353E-03   -0.29668E-05  1031   0.281E-02    0.835E-03
RMM:   7    -0.932220241159E+02   -0.34771E-03   -0.33609E-05  1061   0.170E-02    0.436E-03
RMM:   8    -0.932221330111E+02   -0.10890E-03   -0.15200E-05  1039   0.188E-02    0.626E-03
RMM:   9    -0.932221804244E+02   -0.47413E-04   -0.82295E-06  1018   0.142E-02
   83 T=   330. E= -.93168394E+02 F= -.93222180E+02 E0= -.93213548E+02  EK= 0.46960E+00 SP= -.42E+00 SK= 0.90E-02
       N       E                     dE             d eps       ncg     rms          rms(c)
DAV:   1    -0.932023377519E+02    0.19795E-01   -0.13420E-04  1272   0.306E-01    0.127E-02
RMM:   2    -0.932027529993E+02   -0.41525E-03   -0.14772E-04  1114   0.478E-02    0.144E-02
RMM:   3    -0.932029045619E+02   -0.15156E-03   -0.38219E-05  1027   0.337E-02    0.925E-03
RMM:   4    -0.932032143856E+02   -0.30982E-03   -0.16769E-05  1030   0.173E-02    0.711E-03
RMM:   5    -0.932038175530E+02   -0.60317E-03   -0.26913E-05  1057   0.182E-02    0.770E-03
RMM:   6    -0.932040496453E+02   -0.23209E-03   -0.12269E-05  1028   0.158E-02    0.368E-03
RMM:   7    -0.932042731592E+02   -0.22351E-03   -0.11594E-05  1022   0.118E-02    0.406E-03
RMM:   8    -0.932043518549E+02   -0.78696E-04   -0.50553E-06   993   0.113E-02
   84 T=   328. E= -.93168172E+02 F= -.93204352E+02 E0= -.93195732E+02  EK= 0.46652E+00 SP= -.44E+00 SK= 0.77E-02
       N       E                     dE             d eps       ncg     rms          rms(c)
DAV:   1    -0.931859912504E+02    0.18282E-01   -0.15185E-04  1248   0.263E-01    0.787E-03
RMM:   2    -0.931862013431E+02   -0.21009E-03   -0.13997E-04  1101   0.411E-02    0.714E-03
RMM:   3    -0.931862947724E+02   -0.93429E-04   -0.38799E-05  1022   0.310E-02
   85 T=   325. E= -.93167559E+02 F= -.93186295E+02 E0= -.93177687E+02  EK= 0.46242E+00 SP= -.45E+00 SK= 0.66E-02
       N       E                     dE             d eps       ncg     rms          rms(c)
DAV:   1    -0.931692132623E+02    0.16988E-01   -0.11420E-04  1256   0.223E-01    0.944E-03
RMM:   2    -0.931695646633E+02   -0.35140E-03   -0.19319E-04  1102   0.661E-02    0.160E-02
RMM:   3    -0.931696474840E+02   -0.82821E-04   -0.58250E-05  1021   0.365E-02
   86 T=   323. E= -.93166823E+02 F= -.93169647E+02 E0= -.93161054E+02  EK= 0.45878E+00 SP= -.46E+00 SK= 0.57E-02
       N       E                     dE             d eps       ncg     rms          rms(c)
DAV:   1    -0.931564453021E+02    0.13119E-01   -0.61882E-05  1312   0.194E-01    0.971E-03
RMM:   2    -0.931566604227E+02   -0.21512E-03   -0.12056E-04  1061   0.454E-02    0.128E-02
RMM:   3    -0.931567307194E+02   -0.70297E-04   -0.46561E-05   995   0.355E-02
   87 T=   321. E= -.93167044E+02 F= -.93156731E+02 E0= -.93148160E+02  EK= 0.45699E+00 SP= -.47E+00 SK= 0.49E-02
       N       E                     dE             d eps       ncg     rms          rms(c)
DAV:   1    -0.931475187925E+02    0.91416E-02   -0.89657E-05  1232   0.181E-01    0.637E-03
RMM:   2    -0.931476995539E+02   -0.18076E-03   -0.98142E-05  1056   0.470E-02    0.807E-03
RMM:   3    -0.931477523842E+02   -0.52830E-04   -0.29982E-05  1005   0.228E-02
   88 T=   322. E= -.93167457E+02 F= -.93147752E+02 E0= -.93139205E+02  EK= 0.45814E+00 SP= -.48E+00 SK= 0.42E-02
       N       E                     dE             d eps       ncg     rms          rms(c)
DAV:   1    -0.931416654946E+02    0.60341E-02   -0.11333E-04  1216   0.163E-01    0.125E-02
RMM:   2    -0.931420298867E+02   -0.36439E-03   -0.16892E-04  1088   0.642E-02    0.180E-02
RMM:   3    -0.931421335311E+02   -0.10364E-03   -0.66936E-05  1025   0.414E-02    0.777E-03
RMM:   4    -0.931426611227E+02   -0.52759E-03   -0.62096E-05  1070   0.261E-02    0.799E-03
RMM:   5    -0.931429169540E+02   -0.25583E-03   -0.37602E-05  1056   0.250E-02    0.507E-03
RMM:   6    -0.931429910282E+02   -0.74074E-04   -0.15364E-05  1018   0.161E-02
   89 T=   325. E= -.93167792E+02 F= -.93142991E+02 E0= -.93134469E+02  EK= 0.46280E+00 SP= -.49E+00 SK= 0.35E-02
       N       E                     dE             d eps       ncg     rms          rms(c)
DAV:   1    -0.931415505870E+02    0.13664E-02   -0.19429E-04  1264   0.238E-01    0.112E-02
RMM:   2    -0.931417690871E+02   -0.21850E-03   -0.10426E-04  1064   0.434E-02    0.123E-02
RMM:   3    -0.931418441426E+02   -0.75055E-04   -0.40923E-05  1018   0.319E-02
   90 T=   331. E= -.93167375E+02 F= -.93141844E+02 E0= -.93133347E+02  EK= 0.47098E+00 SP= -.50E+00 SK= 0.27E-02
       N       E                     dE             d eps       ncg     rms          rms(c)
DAV:   1    -0.931446003843E+02   -0.28313E-02   -0.28787E-04  1376   0.221E-01    0.103E-02
RMM:   2    -0.931448760588E+02   -0.27567E-03   -0.22754E-04  1116   0.741E-02    0.182E-02
RMM:   3    -0.931449414119E+02   -0.65353E-04   -0.60135E-05  1019   0.364E-02
   91 T=   339. E= -.93167247E+02 F= -.93144941E+02 E0= -.93136462E+02  EK= 0.48207E+00 SP= -.51E+00 SK= 0.19E-02
       N       E                     dE             d eps       ncg     rms          rms(c)
DAV:   1    -0.931511904633E+02   -0.63144E-02   -0.90879E-05  1264   0.282E-01    0.115E-02
RMM:   2    -0.931514347690E+02   -0.24431E-03   -0.14813E-04  1073   0.552E-02    0.171E-02
RMM:   3    -0.931515052624E+02   -0.70493E-04   -0.63787E-05  1007   0.424E-02
   92 T=   348. E= -.93167474E+02 F= -.93151505E+02 E0= -.93143045E+02  EK= 0.49490E+00 SP= -.51E+00 SK= 0.11E-02
       N       E                     dE             d eps       ncg     rms          rms(c)
DAV:   1    -0.931596864625E+02   -0.82517E-02   -0.13986E-04  1312   0.361E-01    0.980E-03
RMM:   2    -0.931598916587E+02   -0.20520E-03   -0.17030E-04  1088   0.637E-02    0.139E-02
RMM:   3    -0.931599554200E+02   -0.63761E-04   -0.60914E-05  1008   0.359E-02
   93 T=   357. E= -.93167680E+02 F= -.93159955E+02 E0= -.93151518E+02  EK= 0.50783E+00 SP= -.52E+00 SK= 0.43E-03
       N       E                     dE             d eps       ncg     rms          rms(c)
DAV:   1    -0.931675579289E+02   -0.76663E-02   -0.14232E-04  1240   0.356E-01    0.119E-02
RMM:   2    -0.931679822724E+02   -0.42434E-03   -0.23672E-04  1113   0.804E-02    0.223E-02
RMM:   3    -0.931680815886E+02   -0.99316E-04   -0.62739E-05  1027   0.390E-02
   94 T=   365. E= -.93167107E+02 F= -.93168082E+02 E0= -.93159666E+02  EK= 0.51891E+00 SP= -.52E+00 SK= 0.35E-04
       N       E                     dE             d eps       ncg     rms          rms(c)
DAV:   1    -0.931750188018E+02   -0.70365E-02   -0.16625E-04  1256   0.388E-01    0.133E-02
RMM:   2    -0.931754836723E+02   -0.46487E-03   -0.21263E-04  1112   0.545E-02    0.180E-02
RMM:   3    -0.931756350854E+02   -0.15141E-03   -0.77720E-05  1027   0.478E-02    0.945E-03
RMM:   4    -0.931760745463E+02   -0.43946E-03   -0.41225E-05  1043   0.249E-02    0.908E-03
RMM:   5    -0.931769274379E+02   -0.85289E-03   -0.77587E-05  1075   0.284E-02    0.977E-03
RMM:   6    -0.931771558032E+02   -0.22837E-03   -0.27596E-05  1049   0.218E-02    0.411E-03
RMM:   7    -0.931772314008E+02   -0.75598E-04   -0.12655E-05  1019   0.154E-02
   95 T=   370. E= -.93168606E+02 F= -.93177231E+02 E0= -.93168841E+02  EK= 0.52620E+00 SP= -.52E+00 SK= 0.11E-03
       N       E                     dE             d eps       ncg     rms          rms(c)
DAV:   1    -0.931809515810E+02   -0.37958E-02   -0.28066E-04  1248   0.433E-01    0.205E-02
RMM:   2    -0.931813576352E+02   -0.40605E-03   -0.23742E-04  1117   0.603E-02    0.220E-02
RMM:   3    -0.931815023227E+02   -0.14469E-03   -0.88477E-05  1030   0.524E-02    0.135E-02
RMM:   4    -0.931820668964E+02   -0.56457E-03   -0.47543E-05  1053   0.258E-02    0.854E-03
RMM:   5    -0.931823973400E+02   -0.33044E-03   -0.31705E-05  1048   0.228E-02    0.670E-03
RMM:   6    -0.931825079772E+02   -0.11064E-03   -0.15028E-05  1020   0.175E-02    0.461E-03
RMM:   7    -0.931826464417E+02   -0.13846E-03   -0.21437E-05  1051   0.136E-02    0.395E-03
RMM:   8    -0.931826862714E+02   -0.39830E-04   -0.85032E-06  1021   0.133E-02
   96 T=   371. E= -.93168758E+02 F= -.93182686E+02 E0= -.93174320E+02  EK= 0.52811E+00 SP= -.51E+00 SK= 0.76E-03
       N       E                     dE             d eps       ncg     rms          rms(c)
DAV:   1    -0.931835137862E+02   -0.86734E-03   -0.16855E-04  1328   0.422E-01    0.126E-02
RMM:   2    -0.931838639691E+02   -0.35018E-03   -0.20415E-04  1116   0.712E-02    0.208E-02
RMM:   3    -0.931839493139E+02   -0.85345E-04   -0.44057E-05  1022   0.370E-02
   97 T=   368. E= -.93167933E+02 F= -.93183949E+02 E0= -.93175604E+02  EK= 0.52374E+00 SP= -.51E+00 SK= 0.20E-02
       N       E                     dE             d eps       ncg     rms          rms(c)
DAV:   1    -0.931812545633E+02    0.26094E-02   -0.27792E-04  1392   0.434E-01    0.133E-02
RMM:   2    -0.931817562236E+02   -0.50166E-03   -0.25805E-04  1129   0.491E-02    0.186E-02
RMM:   3    -0.931819019735E+02   -0.14575E-03   -0.74878E-05  1030   0.503E-02    0.113E-02
RMM:   4    -0.931820674358E+02   -0.16546E-03   -0.24268E-05  1021   0.192E-02    0.101E-02
RMM:   5    -0.931824162519E+02   -0.34882E-03   -0.20521E-05  1034   0.212E-02    0.845E-03
RMM:   6    -0.931830320526E+02   -0.61580E-03   -0.46149E-05  1069   0.166E-02    0.816E-03
RMM:   7    -0.931832054320E+02   -0.17338E-03   -0.18448E-05  1040   0.193E-02    0.638E-03
RMM:   8    -0.931832269398E+02   -0.21508E-04   -0.53825E-06   983   0.102E-02
   98 T=   361. E= -.93168669E+02 F= -.93183227E+02 E0= -.93174897E+02  EK= 0.51300E+00 SP= -.50E+00 SK= 0.36E-02
       N       E                     dE             d eps       ncg     rms          rms(c)
DAV:   1    -0.931764953683E+02    0.67101E-02   -0.33021E-04  1328   0.408E-01    0.203E-02
RMM:   2    -0.931769660814E+02   -0.47071E-03   -0.21519E-04  1108   0.507E-02    0.134E-02
RMM:   3    -0.931772694942E+02   -0.30341E-03   -0.69329E-05  1034   0.463E-02    0.141E-02
RMM:   4    -0.931775897746E+02   -0.32028E-03   -0.31707E-05  1027   0.279E-02    0.651E-03
RMM:   5    -0.931779050969E+02   -0.31532E-03   -0.16721E-05  1028   0.163E-02    0.614E-03
RMM:   6    -0.931780829496E+02   -0.17785E-03   -0.10849E-05  1019   0.154E-02    0.444E-03
RMM:   7    -0.931783360979E+02   -0.25315E-03   -0.12112E-05  1012   0.113E-02    0.237E-03
RMM:   8    -0.931784725948E+02   -0.13650E-03   -0.10265E-05  1031   0.124E-02    0.324E-03
RMM:   9    -0.931784962148E+02   -0.23620E-04   -0.40097E-06   969   0.102E-02
   99 T=   349. E= -.93168610E+02 F= -.93178496E+02 E0= -.93170183E+02  EK= 0.49678E+00 SP= -.49E+00 SK= 0.54E-02
       N       E                     dE             d eps       ncg     rms          rms(c)
DAV:   1    -0.931705690409E+02    0.79036E-02   -0.15861E-04  1312   0.436E-01    0.110E-02
RMM:   2    -0.931707813065E+02   -0.21227E-03   -0.11591E-04  1100   0.389E-02    0.126E-02
RMM:   3    -0.931708509937E+02   -0.69687E-04   -0.36842E-05  1015   0.325E-02
  100 T=   335. E= -.93167888E+02 F= -.93170851E+02 E0= -.93162554E+02  EK= 0.47675E+00 SP= -.48E+00 SK= 0.70E-02
       N       E                     dE             d eps       ncg     rms          rms(c)
DAV:   1    -0.931614485841E+02    0.93327E-02   -0.22759E-04  1312   0.336E-01    0.145E-02
RMM:   2    -0.931619411975E+02   -0.49261E-03   -0.21921E-04  1121   0.609E-02    0.217E-02
RMM:   3    -0.931620151635E+02   -0.73966E-04   -0.45055E-05  1026   0.327E-02
  101 T=   320. E= -.93166817E+02 F= -.93162015E+02 E0= -.93153734E+02  EK= 0.45508E+00 SP= -.47E+00 SK= 0.82E-02
       N       E                     dE             d eps       ncg     rms          rms(c)
DAV:   1    -0.931532026198E+02    0.87386E-02   -0.11349E-04  1328   0.336E-01    0.390E-02
RMM:   2    -0.931539304358E+02   -0.72782E-03   -0.15547E-04  1092   0.428E-02    0.285E-02
RMM:   3    -0.931544668036E+02   -0.53637E-03   -0.12802E-04  1053   0.650E-02    0.285E-02
RMM:   4    -0.931553923890E+02   -0.92559E-03   -0.96313E-05  1080   0.412E-02    0.606E-03
RMM:   5    -0.931556135474E+02   -0.22116E-03   -0.26281E-05  1037   0.197E-02    0.708E-03
RMM:   6    -0.931558247401E+02   -0.21119E-03   -0.17910E-05  1033   0.180E-02    0.396E-03
RMM:   7    -0.931561595565E+02   -0.33482E-03   -0.42348E-05  1067   0.153E-02    0.521E-03
RMM:   8    -0.931561760478E+02   -0.16491E-04   -0.93396E-06  1014   0.144E-02
  102 T=   305. E= -.93167939E+02 F= -.93156176E+02 E0= -.93147900E+02  EK= 0.43411E+00 SP= -.45E+00 SK= 0.87E-02
       N       E                     dE             d eps       ncg     rms          rms(c)
DAV:   1    -0.931463973702E+02    0.97622E-02   -0.59817E-04  1504   0.363E-01    0.541E-02
RMM:   2    -0.931474428342E+02   -0.10455E-02   -0.31179E-04  1167   0.738E-02    0.414E-02
RMM:   3    -0.931481974148E+02   -0.75458E-03   -0.19401E-04  1045   0.825E-02    0.383E-02
RMM:   4    -0.931498073073E+02   -0.16099E-02   -0.11880E-04  1098   0.500E-02    0.954E-03
RMM:   5    -0.931501492485E+02   -0.34194E-03   -0.29310E-05  1028   0.232E-02    0.967E-03
RMM:   6    -0.931503897788E+02   -0.24053E-03   -0.18265E-05  1021   0.216E-02    0.619E-03
RMM:   7    -0.931511060722E+02   -0.71629E-03   -0.36805E-05  1067   0.151E-02    0.527E-03
RMM:   8    -0.931512526390E+02   -0.14657E-03   -0.18506E-05  1041   0.160E-02    0.414E-03
RMM:   9    -0.931512834565E+02   -0.30818E-04   -0.55406E-06   989   0.108E-02
  103 T=   292. E= -.93167682E+02 F= -.93151283E+02 E0= -.93143014E+02  EK= 0.41589E+00 SP= -.44E+00 SK= 0.87E-02
       N       E                     dE             d eps       ncg     rms          rms(c)
DAV:   1    -0.931475687546E+02    0.36839E-02   -0.17813E-04  1280   0.272E-01    0.195E-02
RMM:   2    -0.931481974523E+02   -0.62870E-03   -0.11547E-04  1104   0.312E-02    0.149E-02
RMM:   3    -0.931489143532E+02   -0.71690E-03   -0.61174E-05  1064   0.375E-02    0.171E-02
RMM:   4    -0.931495795879E+02   -0.66523E-03   -0.45855E-05  1070   0.243E-02    0.385E-03
RMM:   5    -0.931496704864E+02   -0.90899E-04   -0.82844E-06   832   0.999E-03
  104 T=   283. E= -.93167311E+02 F= -.93149670E+02 E0= -.93141407E+02  EK= 0.40184E+00 SP= -.43E+00 SK= 0.81E-02
       N       E                     dE             d eps       ncg     rms          rms(c)
DAV:   1    -0.931518818321E+02   -0.23022E-02   -0.23955E-04  1312   0.228E-01    0.555E-03
RMM:   2    -0.931520645442E+02   -0.18271E-03   -0.12876E-04  1092   0.421E-02    0.783E-03
RMM:   3    -0.931521138797E+02   -0.49336E-04   -0.32898E-05  1020   0.277E-02
  105 T=   276. E= -.93167141E+02 F= -.93152114E+02 E0= -.93143856E+02  EK= 0.39257E+00 SP= -.41E+00 SK= 0.72E-02
       N       E                     dE             d eps       ncg     rms          rms(c)
DAV:   1    -0.931583238586E+02   -0.62593E-02   -0.70575E-05  1336   0.222E-01    0.552E-03
RMM:   2    -0.931584237285E+02   -0.99870E-04   -0.88882E-05  1047   0.362E-02
  106 T=   273. E= -.93167216E+02 F= -.93158424E+02 E0= -.93150171E+02  EK= 0.38789E+00 SP= -.40E+00 SK= 0.62E-02
       N       E                     dE             d eps       ncg     rms          rms(c)
DAV:   1    -0.931671795442E+02   -0.88557E-02   -0.23593E-04  1424   0.298E-01    0.837E-03
RMM:   2    -0.931672817978E+02   -0.10225E-03   -0.11833E-04  1079   0.458E-02    0.877E-03
RMM:   3    -0.931673280744E+02   -0.46277E-04   -0.34258E-05  1009   0.271E-02
  107 T=   272. E= -.93167128E+02 F= -.93167328E+02 E0= -.93159078E+02  EK= 0.38692E+00 SP= -.39E+00 SK= 0.52E-02
       N       E                     dE             d eps       ncg     rms          rms(c)
DAV:   1    -0.931778335717E+02   -0.10552E-01   -0.12683E-04  1352   0.174E-01    0.103E-02
RMM:   2    -0.931779477676E+02   -0.11420E-03   -0.20820E-04  1101   0.845E-02    0.173E-02
RMM:   3    -0.931779718913E+02   -0.24124E-04   -0.34615E-05  1001   0.259E-02
  108 T=   273. E= -.93167326E+02 F= -.93177972E+02 E0= -.93169722E+02  EK= 0.38829E+00 SP= -.38E+00 SK= 0.43E-02
       N       E                     dE             d eps       ncg     rms          rms(c)
DAV:   1    -0.931882734335E+02   -0.10326E-01   -0.10983E-04  1256   0.223E-01    0.101E-02
RMM:   2    -0.931884159153E+02   -0.14248E-03   -0.14639E-04  1092   0.447E-02    0.129E-02
RMM:   3    -0.931884593241E+02   -0.43409E-04   -0.46646E-05  1005   0.343E-02
  109 T=   275. E= -.93167419E+02 F= -.93188459E+02 E0= -.93180208E+02  EK= 0.39043E+00 SP= -.37E+00 SK= 0.35E-02
       N       E                     dE             d eps       ncg     rms          rms(c)
DAV:   1    -0.931966060475E+02   -0.81901E-02   -0.11427E-04  1232   0.247E-01    0.871E-03
RMM:   2    -0.931967983693E+02   -0.19232E-03   -0.11629E-04  1074   0.495E-02    0.916E-03
RMM:   3    -0.931968799587E+02   -0.81589E-04   -0.38218E-05  1021   0.269E-02
  110 T=   276. E= -.93166919E+02 F= -.93196880E+02 E0= -.93188627E+02  EK= 0.39188E+00 SP= -.36E+00 SK= 0.28E-02
       N       E                     dE             d eps       ncg     rms          rms(c)
DAV:   1    -0.932023088834E+02   -0.55105E-02   -0.10929E-04  1240   0.190E-01    0.995E-03
RMM:   2    -0.932026010676E+02   -0.29218E-03   -0.17850E-04  1097   0.703E-02    0.175E-02
RMM:   3    -0.932026766098E+02   -0.75542E-04   -0.35084E-05  1020   0.281E-02
  111 T=   275. E= -.93166373E+02 F= -.93202677E+02 E0= -.93194424E+02  EK= 0.39152E+00 SP= -.36E+00 SK= 0.22E-02
       N       E                     dE             d eps       ncg     rms          rms(c)
DAV:   1    -0.932058069664E+02   -0.32059E-02   -0.10477E-04  1272   0.204E-01    0.114E-02
RMM:   2    -0.932060687316E+02   -0.26177E-03   -0.16867E-04  1111   0.497E-02    0.180E-02
RMM:   3    -0.932061396553E+02   -0.70924E-04   -0.46438E-05  1024   0.374E-02
  112 T=   273. E= -.93166721E+02 F= -.93206140E+02 E0= -.93197890E+02  EK= 0.38875E+00 SP= -.35E+00 SK= 0.17E-02
       N       E                     dE             d eps       ncg     rms          rms(c)
DAV:   1    -0.932062695185E+02   -0.20079E-03   -0.96707E-05  1280   0.241E-01    0.832E-03
RMM:   2    -0.932064206990E+02   -0.15118E-03   -0.15078E-04  1106   0.433E-02    0.128E-02
RMM:   3    -0.932064607217E+02   -0.40023E-04   -0.31626E-05  1012   0.286E-02
  113 T=   270. E= -.93167314E+02 F= -.93206461E+02 E0= -.93198212E+02  EK= 0.38350E+00 SP= -.35E+00 SK= 0.12E-02
       N       E                     dE             d eps       ncg     rms          rms(c)
DAV:   1    -0.932027403525E+02    0.36803E-02   -0.16354E-04  1304   0.189E-01    0.135E-02
RMM:   2    -0.932028480081E+02   -0.10766E-03   -0.21026E-04  1118   0.668E-02    0.171E-02
RMM:   3    -0.932028734720E+02   -0.25464E-04   -0.41911E-05  1013   0.299E-02
  114 T=   265. E= -.93167110E+02 F= -.93202873E+02 E0= -.93194627E+02  EK= 0.37616E+00 SP= -.34E+00 SK= 0.69E-03
       N       E                     dE             d eps       ncg     rms          rms(c)
DAV:   1    -0.931960621958E+02    0.67858E-02   -0.11881E-04  1264   0.188E-01    0.139E-02
RMM:   2    -0.931962469868E+02   -0.18479E-03   -0.18123E-04  1110   0.473E-02    0.152E-02
RMM:   3    -0.931963218908E+02   -0.74904E-04   -0.50926E-05  1019   0.387E-02
  115 T=   258. E= -.93166444E+02 F= -.93196322E+02 E0= -.93188077E+02  EK= 0.36749E+00 SP= -.34E+00 SK= 0.29E-03
       N       E                     dE             d eps       ncg     rms          rms(c)
DAV:   1    -0.931882789876E+02    0.79680E-02   -0.27917E-04  1376   0.353E-01    0.242E-02
RMM:   2    -0.931885204528E+02   -0.24147E-03   -0.24730E-04  1114   0.761E-02    0.272E-02
RMM:   3    -0.931885947407E+02   -0.74288E-04   -0.88785E-05  1023   0.535E-02
  116 T=   252. E= -.93166246E+02 F= -.93188595E+02 E0= -.93180349E+02  EK= 0.35847E+00 SP= -.34E+00 SK= 0.38E-04
       N       E                     dE             d eps       ncg     rms          rms(c)
DAV:   1    -0.931808192565E+02    0.77012E-02   -0.57402E-04  1952   0.314E-01    0.235E-02
RMM:   2    -0.931809534300E+02   -0.13417E-03   -0.37293E-04  1152   0.113E-01    0.338E-02
RMM:   3    -0.931809605288E+02   -0.70988E-05   -0.88755E-05  1019   0.554E-02
  117 T=   246. E= -.93166833E+02 F= -.93180961E+02 E0= -.93172709E+02  EK= 0.35020E+00 SP= -.34E+00 SK= 0.38E-04
       N       E                     dE             d eps       ncg     rms          rms(c)
DAV:   1    -0.931700405963E+02    0.10913E-01   -0.54475E-04  1824   0.387E-01    0.226E-02
RMM:   2    -0.931705212699E+02   -0.48067E-03   -0.27747E-04  1124   0.848E-02    0.295E-02
RMM:   3    -0.931706837715E+02   -0.16250E-03   -0.88334E-05  1031   0.559E-02    0.107E-02
RMM:   4    -0.931715161455E+02   -0.83237E-03   -0.44433E-05  1060   0.272E-02    0.110E-02
RMM:   5    -0.931722633549E+02   -0.74721E-03   -0.40749E-05  1071   0.218E-02    0.817E-03
RMM:   6    -0.931727646270E+02   -0.50127E-03   -0.28773E-05  1060   0.194E-02    0.593E-03
RMM:   7    -0.931730266622E+02   -0.26204E-03   -0.21138E-05  1050   0.188E-02    0.541E-03
RMM:   8    -0.931731088679E+02   -0.82206E-04   -0.11136E-05  1026   0.150E-02
  118 T=   242. E= -.93166962E+02 F= -.93173109E+02 E0= -.93164855E+02  EK= 0.34370E+00 SP= -.34E+00 SK= 0.39E-03
       N       E                     dE             d eps       ncg     rms          rms(c)
DAV:   1    -0.931651338464E+02    0.78928E-02   -0.27936E-04  1328   0.246E-01    0.148E-02
RMM:   2    -0.931653239791E+02   -0.19013E-03   -0.23953E-04  1117   0.738E-02    0.194E-02
RMM:   3    -0.931653832341E+02   -0.59255E-04   -0.70183E-05  1024   0.469E-02
  119 T=   239. E= -.93166137E+02 F= -.93165383E+02 E0= -.93157127E+02  EK= 0.33991E+00 SP= -.34E+00 SK= 0.12E-02
       N       E                     dE             d eps       ncg     rms          rms(c)
DAV:   1    -0.931585703580E+02    0.67536E-02   -0.40779E-04  1504   0.187E-01    0.150E-02
RMM:   2    -0.931589149498E+02   -0.34459E-03   -0.29741E-04  1152   0.836E-02    0.214E-02
RMM:   3    -0.931590242571E+02   -0.10931E-03   -0.75725E-05  1032   0.428E-02    0.118E-02
RMM:   4    -0.931594472670E+02   -0.42301E-03   -0.40054E-05  1032   0.245E-02    0.114E-02
RMM:   5    -0.931604147963E+02   -0.96753E-03   -0.11474E-04  1097   0.440E-02    0.196E-02
RMM:   6    -0.931606853825E+02   -0.27059E-03   -0.48193E-05  1071   0.243E-02    0.103E-02
RMM:   7    -0.931607585840E+02   -0.73201E-04   -0.15070E-05  1022   0.166E-02
  120 T=   239. E= -.93166698E+02 F= -.93160759E+02 E0= -.93152494E+02  EK= 0.33952E+00 SP= -.35E+00 SK= 0.24E-02
       N       E                     dE             d eps       ncg     rms          rms(c)
DAV:   1    -0.931535865303E+02    0.70989E-02   -0.36565E-04  1376   0.346E-01    0.280E-02
RMM:   2    -0.931544949128E+02   -0.90838E-03   -0.44576E-04  1257   0.958E-02    0.396E-02
RMM:   3    -0.931547637503E+02   -0.26884E-03   -0.12545E-04  1034   0.636E-02    0.134E-02
RMM:   4    -0.931561654409E+02   -0.14017E-02   -0.93251E-05  1103   0.269E-02    0.108E-02
RMM:   5    -0.931571465504E+02   -0.98111E-03   -0.87067E-05  1095   0.369E-02    0.119E-02
RMM:   6    -0.931573667985E+02   -0.22025E-03   -0.28956E-05  1043   0.239E-02    0.465E-03
RMM:   7    -0.931576635437E+02   -0.29675E-03   -0.29968E-05  1052   0.136E-02    0.457E-03
RMM:   8    -0.931577443955E+02   -0.80852E-04   -0.11167E-05  1019   0.166E-02
  121 T=   241. E= -.93166748E+02 F= -.93157744E+02 E0= -.93149474E+02  EK= 0.34299E+00 SP= -.36E+00 SK= 0.40E-02
       N       E                     dE             d eps       ncg     rms          rms(c)
DAV:   1    -0.931555367002E+02    0.21268E-02   -0.50619E-04  1464   0.265E-01    0.175E-02
RMM:   2    -0.931559527816E+02   -0.41608E-03   -0.24325E-04  1125   0.682E-02    0.235E-02
RMM:   3    -0.931560763035E+02   -0.12352E-03   -0.72718E-05  1027   0.485E-02    0.895E-03
RMM:   4    -0.931564874470E+02   -0.41114E-03   -0.29064E-05  1030   0.216E-02    0.765E-03
RMM:   5    -0.931569298982E+02   -0.44245E-03   -0.26837E-05  1044   0.232E-02    0.611E-03
RMM:   6    -0.931570450689E+02   -0.11517E-03   -0.10634E-05  1019   0.153E-02    0.228E-03
RMM:   7    -0.931571531622E+02   -0.10809E-03   -0.82797E-06  1016   0.127E-02    0.325E-03
RMM:   8    -0.931571894090E+02   -0.36247E-04   -0.42609E-06   989   0.111E-02
  122 T=   247. E= -.93167001E+02 F= -.93157189E+02 E0= -.93148908E+02  EK= 0.35051E+00 SP= -.37E+00 SK= 0.59E-02
       N       E                     dE             d eps       ncg     rms          rms(c)
DAV:   1    -0.931575613431E+02   -0.40818E-03   -0.33788E-04  1376   0.314E-01    0.108E-02
RMM:   2    -0.931578044879E+02   -0.24314E-03   -0.24332E-04  1118   0.733E-02    0.184E-02
RMM:   3    -0.931578637975E+02   -0.59310E-04   -0.58616E-05  1025   0.409E-02
  123 T=   255. E= -.93166390E+02 F= -.93157864E+02 E0= -.93149570E+02  EK= 0.36192E+00 SP= -.38E+00 SK= 0.79E-02
       N       E                     dE             d eps       ncg     rms          rms(c)
DAV:   1    -0.931596790987E+02   -0.18746E-02   -0.15883E-04  1328   0.325E-01    0.118E-02
RMM:   2    -0.931601196225E+02   -0.44052E-03   -0.24580E-04  1127   0.505E-02    0.140E-02
RMM:   3    -0.931602725676E+02   -0.15295E-03   -0.75901E-05  1028   0.463E-02    0.943E-03
RMM:   4    -0.931606456679E+02   -0.37310E-03   -0.35468E-05  1040   0.232E-02    0.718E-03
RMM:   5    -0.931613242905E+02   -0.67862E-03   -0.49183E-05  1074   0.218E-02    0.758E-03
RMM:   6    -0.931615254881E+02   -0.20120E-03   -0.21118E-05  1050   0.194E-02    0.332E-03
RMM:   7    -0.931615909517E+02   -0.65464E-04   -0.11516E-05  1026   0.140E-02
  124 T=   265. E= -.93167132E+02 F= -.93161591E+02 E0= -.93153279E+02  EK= 0.37678E+00 SP= -.39E+00 SK= 0.97E-02
       N       E                     dE             d eps       ncg     rms          rms(c)
DAV:   1    -0.931642388160E+02   -0.27133E-02   -0.31241E-04  1272   0.398E-01    0.183E-02
RMM:   2    -0.931646626530E+02   -0.42384E-03   -0.26529E-04  1136   0.625E-02    0.237E-02
RMM:   3    -0.931647876310E+02   -0.12498E-03   -0.80504E-05  1027   0.496E-02    0.105E-02
RMM:   4    -0.931653965740E+02   -0.60894E-03   -0.44091E-05  1059   0.235E-02    0.797E-03
RMM:   5    -0.931656352926E+02   -0.23872E-03   -0.20658E-05  1041   0.184E-02    0.400E-03
RMM:   6    -0.931657179030E+02   -0.82610E-04   -0.83195E-06  1013   0.125E-02
  125 T=   277. E= -.93167227E+02 F= -.93165718E+02 E0= -.93157383E+02  EK= 0.39432E+00 SP= -.41E+00 SK= 0.11E-01
       N       E                     dE             d eps       ncg     rms          rms(c)
DAV:   1    -0.931692532860E+02   -0.36180E-02   -0.25199E-04  1432   0.386E-01    0.131E-02
RMM:   2    -0.931694820398E+02   -0.22875E-03   -0.16619E-04  1105   0.488E-02    0.157E-02
RMM:   3    -0.931695516963E+02   -0.69657E-04   -0.46828E-05  1015   0.380E-02
  126 T=   291. E= -.93166847E+02 F= -.93169552E+02 E0= -.93161190E+02  EK= 0.41342E+00 SP= -.42E+00 SK= 0.12E-01
       N       E                     dE             d eps       ncg     rms          rms(c)
DAV:   1    -0.931723254185E+02   -0.28434E-02   -0.26951E-04  1336   0.424E-01    0.878E-03
RMM:   2    -0.931726747043E+02   -0.34929E-03   -0.21436E-04  1133   0.458E-02    0.111E-02
RMM:   3    -0.931727887357E+02   -0.11403E-03   -0.51939E-05  1028   0.371E-02    0.748E-03
RMM:   4    -0.931729571478E+02   -0.16841E-03   -0.22499E-05  1019   0.196E-02    0.653E-03
RMM:   5    -0.931734621455E+02   -0.50500E-03   -0.31102E-05  1059   0.209E-02    0.713E-03
RMM:   6    -0.931736833270E+02   -0.22118E-03   -0.15572E-05  1032   0.158E-02    0.401E-03
RMM:   7    -0.931738262471E+02   -0.14292E-03   -0.14632E-05  1041   0.145E-02    0.578E-03
RMM:   8    -0.931738364780E+02   -0.10231E-04   -0.42767E-06   950   0.102E-02
  127 T=   304. E= -.93167687E+02 F= -.93173836E+02 E0= -.93165440E+02  EK= 0.43278E+00 SP= -.44E+00 SK= 0.12E-01
       N       E                     dE             d eps       ncg     rms          rms(c)
DAV:   1    -0.931746710966E+02   -0.84485E-03   -0.45819E-04  1320   0.406E-01    0.124E-02
RMM:   2    -0.931749103571E+02   -0.23926E-03   -0.23076E-04  1124   0.533E-02    0.133E-02
RMM:   3    -0.931749953117E+02   -0.84955E-04   -0.55556E-05  1026   0.384E-02
  128 T=   317. E= -.93167151E+02 F= -.93174995E+02 E0= -.93166555E+02  EK= 0.45094E+00 SP= -.45E+00 SK= 0.12E-01
       N       E                     dE             d eps       ncg     rms          rms(c)
DAV:   1    -0.931733570655E+02    0.15533E-02   -0.44759E-04  1360   0.394E-01    0.135E-02
RMM:   2    -0.931736153694E+02   -0.25830E-03   -0.34894E-04  1180   0.648E-02    0.175E-02
RMM:   3    -0.931737030389E+02   -0.87669E-04   -0.93864E-05  1022   0.487E-02
  129 T=   328. E= -.93166815E+02 F= -.93173703E+02 E0= -.93165211E+02  EK= 0.46642E+00 SP= -.47E+00 SK= 0.10E-01
       N       E                     dE             d eps       ncg     rms          rms(c)
DAV:   1    -0.931691834702E+02    0.44319E-02   -0.31830E-04  1328   0.404E-01    0.110E-02
RMM:   2    -0.931693919570E+02   -0.20849E-03   -0.22034E-04  1119   0.549E-02    0.146E-02
RMM:   3    -0.931694644077E+02   -0.72451E-04   -0.56092E-05  1004   0.386E-02
  130 T=   336. E= -.93166845E+02 F= -.93169464E+02 E0= -.93160909E+02  EK= 0.47799E+00 SP= -.48E+00 SK= 0.89E-02
       N       E                     dE             d eps       ncg     rms          rms(c)
DAV:   1    -0.931616038251E+02    0.77881E-02   -0.40949E-04  1400   0.483E-01    0.114E-02
RMM:   2    -0.931618377681E+02   -0.23394E-03   -0.23510E-04  1130   0.544E-02    0.187E-02
RMM:   3    -0.931618927023E+02   -0.54934E-04   -0.64560E-05  1009   0.406E-02
  131 T=   341. E= -.93167153E+02 F= -.93161893E+02 E0= -.93153265E+02  EK= 0.48483E+00 SP= -.50E+00 SK= 0.72E-02
       N       E                     dE             d eps       ncg     rms          rms(c)
DAV:   1    -0.931497511183E+02    0.12087E-01   -0.45675E-04  1488   0.404E-01    0.137E-02
RMM:   2    -0.931502005738E+02   -0.44946E-03   -0.33420E-04  1159   0.740E-02    0.146E-02
RMM:   3    -0.931503522018E+02   -0.15163E-03   -0.76573E-05  1036   0.369E-02    0.123E-02
RMM:   4    -0.931505254885E+02   -0.17329E-03   -0.34072E-05  1023   0.292E-02    0.104E-02
RMM:   5    -0.931509674022E+02   -0.44191E-03   -0.34310E-05  1053   0.230E-02    0.862E-03
RMM:   6    -0.931511551978E+02   -0.18780E-03   -0.17804E-05  1029   0.197E-02    0.374E-03
RMM:   7    -0.931512611371E+02   -0.10594E-03   -0.10278E-05  1021   0.139E-02    0.336E-03
RMM:   8    -0.931513363284E+02   -0.75191E-04   -0.64292E-06   998   0.113E-02
  132 T=   342. E= -.93167877E+02 F= -.93151336E+02 E0= -.93142625E+02  EK= 0.48677E+00 SP= -.51E+00 SK= 0.56E-02
       N       E                     dE             d eps       ncg     rms          rms(c)
DAV:   1    -0.931352458458E+02    0.16015E-01   -0.98099E-04  1552   0.442E-01    0.290E-02
RMM:   2    -0.931356686748E+02   -0.42283E-03   -0.44483E-04  1191   0.743E-02    0.223E-02
[...]
RMM:   3    -0.929876018687E+02   -0.15436E-03   -0.90508E-05  1042   0.494E-02    0.119E-02
RMM:   4    -0.929881766000E+02   -0.57473E-03   -0.55348E-05  1057   0.303E-02    0.102E-02
RMM:   5    -0.929886592059E+02   -0.48261E-03   -0.52360E-05  1064   0.296E-02    0.966E-03
RMM:   6    -0.929888313455E+02   -0.17214E-03   -0.27758E-05  1048   0.221E-02    0.396E-03
RMM:   7    -0.929889501254E+02   -0.11878E-03   -0.18463E-05  1031   0.159E-02    0.444E-03
RMM:   8    -0.929890268135E+02   -0.76688E-04   -0.10811E-05  1015   0.146E-02
 1967 T=   378. E= -.93166642E+02 F= -.92989027E+02 E0= -.92975306E+02  EK= 0.53799E+00 SP= -.72E+00 SK= 0.33E-02
       N       E                     dE             d eps       ncg     rms          rms(c)
DAV:   1    -0.929849044254E+02    0.40457E-02   -0.25629E-04  1400   0.244E-01    0.871E-03
RMM:   2    -0.929852862759E+02   -0.38185E-03   -0.16620E-04  1109   0.556E-02    0.133E-02
RMM:   3    -0.929853853436E+02   -0.99068E-04   -0.47404E-05  1023   0.337E-02
 1968 T=   368. E= -.93165778E+02 F= -.92985385E+02 E0= -.92971601E+02  EK= 0.52317E+00 SP= -.71E+00 SK= 0.56E-02
       N       E                     dE             d eps       ncg     rms          rms(c)
DAV:   1    -0.929874754141E+02   -0.21891E-02   -0.32549E-04  1392   0.228E-01    0.107E-02
RMM:   2    -0.929880767186E+02   -0.60130E-03   -0.22804E-04  1132   0.589E-02    0.143E-02
RMM:   3    -0.929882493821E+02   -0.17266E-03   -0.62152E-05  1046   0.377E-02    0.880E-03
RMM:   4    -0.929886527563E+02   -0.40337E-03   -0.40005E-05  1057   0.235E-02    0.780E-03
RMM:   5    -0.929895610641E+02   -0.90831E-03   -0.13088E-04  1093   0.280E-02    0.892E-03
RMM:   6    -0.929896891976E+02   -0.12813E-03   -0.26351E-05  1058   0.217E-02    0.284E-03
RMM:   7    -0.929897401513E+02   -0.50954E-04   -0.12202E-05  1020   0.141E-02
 1969 T=   360. E= -.93166579E+02 F= -.92989740E+02 E0= -.92975885E+02  EK= 0.51207E+00 SP= -.70E+00 SK= 0.82E-02
       N       E                     dE             d eps       ncg     rms          rms(c)
DAV:   1    -0.929968035557E+02   -0.71144E-02   -0.55329E-04  1432   0.298E-01    0.203E-02
RMM:   2    -0.929973689987E+02   -0.56544E-03   -0.31502E-04  1167   0.766E-02    0.278E-02
RMM:   3    -0.929975342625E+02   -0.16526E-03   -0.99502E-05  1031   0.570E-02    0.106E-02
RMM:   4    -0.929982259020E+02   -0.69164E-03   -0.42912E-05  1055   0.258E-02    0.856E-03
RMM:   5    -0.929987098087E+02   -0.48391E-03   -0.29092E-05  1057   0.212E-02    0.521E-03
RMM:   6    -0.929988520759E+02   -0.14227E-03   -0.11656E-05  1007   0.148E-02    0.335E-03
RMM:   7    -0.929989942005E+02   -0.14212E-03   -0.87185E-06   989   0.118E-02    0.265E-03
RMM:   8    -0.929990458436E+02   -0.51643E-04   -0.43802E-06   969   0.105E-02
 1970 T=   355. E= -.93166669E+02 F= -.92999046E+02 E0= -.92985098E+02  EK= 0.50439E+00 SP= -.68E+00 SK= 0.11E-01
       N       E                     dE             d eps       ncg     rms          rms(c)
DAV:   1    -0.930123537040E+02   -0.13360E-01   -0.18819E-04  1400   0.268E-01    0.134E-02
RMM:   2    -0.930124936572E+02   -0.13995E-03   -0.14935E-04  1085   0.549E-02    0.190E-02
RMM:   3    -0.930125277816E+02   -0.34124E-04   -0.49008E-05  1002   0.390E-02
 1971 T=   351. E= -.93166475E+02 F= -.93012528E+02 E0= -.92998468E+02  EK= 0.49912E+00 SP= -.67E+00 SK= 0.14E-01
       N       E                     dE             d eps       ncg     rms          rms(c)
DAV:   1    -0.930285203486E+02   -0.16027E-01   -0.31318E-04  1376   0.334E-01    0.101E-02
RMM:   2    -0.930287648638E+02   -0.24452E-03   -0.19630E-04  1125   0.468E-02    0.150E-02
RMM:   3    -0.930288326981E+02   -0.67834E-04   -0.61205E-05  1029   0.415E-02
 1972 T=   348. E= -.93166310E+02 F= -.93028833E+02 E0= -.93014649E+02  EK= 0.49474E+00 SP= -.65E+00 SK= 0.17E-01
       N       E                     dE             d eps       ncg     rms          rms(c)
DAV:   1    -0.930460446145E+02   -0.17280E-01   -0.23403E-04  1336   0.278E-01    0.724E-03
RMM:   2    -0.930462607466E+02   -0.21613E-03   -0.20321E-04  1100   0.672E-02    0.137E-02
RMM:   3    -0.930463059317E+02   -0.45185E-04   -0.41182E-05  1008   0.268E-02
 1973 T=   344. E= -.93166481E+02 F= -.93046306E+02 E0= -.93031987E+02  EK= 0.48946E+00 SP= -.63E+00 SK= 0.20E-01
       N       E                     dE             d eps       ncg     rms          rms(c)
DAV:   1    -0.930627982816E+02   -0.16538E-01   -0.35938E-04  1424   0.318E-01    0.989E-03
RMM:   2    -0.930628778626E+02   -0.79581E-04   -0.17644E-04  1099   0.490E-02
 1974 T=   339. E= -.93167001E+02 F= -.93062878E+02 E0= -.93048423E+02  EK= 0.48147E+00 SP= -.61E+00 SK= 0.23E-01
       N       E                     dE             d eps       ncg     rms          rms(c)
DAV:   1    -0.930757561991E+02   -0.12958E-01   -0.52044E-04  1784   0.388E-01    0.144E-02
RMM:   2    -0.930758442964E+02   -0.88097E-04   -0.38397E-04  1189   0.959E-02
 1975 T=   330. E= -.93167164E+02 F= -.93075844E+02 E0= -.93061218E+02  EK= 0.46922E+00 SP= -.59E+00 SK= 0.25E-01
       N       E                     dE             d eps       ncg     rms          rms(c)
DAV:   1    -0.930829842797E+02   -0.72281E-02   -0.10107E-03  2136   0.517E-01    0.169E-02
RMM:   2    -0.930832134695E+02   -0.22919E-03   -0.44451E-04  1291   0.113E-01    0.208E-02
RMM:   3    -0.930832808497E+02   -0.67380E-04   -0.72462E-05  1020   0.440E-02
 1976 T=   318. E= -.93166751E+02 F= -.93083281E+02 E0= -.93068508E+02  EK= 0.45168E+00 SP= -.56E+00 SK= 0.27E-01
       N       E                     dE             d eps       ncg     rms          rms(c)
DAV:   1    -0.930846391064E+02   -0.14256E-02   -0.34094E-04  1408   0.293E-01    0.252E-02
RMM:   2    -0.930848662470E+02   -0.22714E-03   -0.54651E-04  1591   0.134E-01    0.357E-02
RMM:   3    -0.930849098647E+02   -0.43618E-04   -0.80112E-05  1009   0.496E-02
 1977 T=   301. E= -.93166617E+02 F= -.93084910E+02 E0= -.93069984E+02  EK= 0.42854E+00 SP= -.54E+00 SK= 0.28E-01
       N       E                     dE             d eps       ncg     rms          rms(c)
DAV:   1    -0.930801489781E+02    0.47173E-02   -0.25771E-04  1256   0.311E-01    0.173E-02
RMM:   2    -0.930802533375E+02   -0.10436E-03   -0.19482E-04  1094   0.564E-02    0.188E-02
RMM:   3    -0.930802886704E+02   -0.35333E-04   -0.81314E-05   998   0.514E-02
 1978 T=   282. E= -.93166676E+02 F= -.93080289E+02 E0= -.93065212E+02  EK= 0.40036E+00 SP= -.51E+00 SK= 0.27E-01
       N       E                     dE             d eps       ncg     rms          rms(c)
DAV:   1    -0.930693058470E+02    0.10947E-01   -0.32865E-04  1376   0.340E-01    0.106E-02
RMM:   2    -0.930694292660E+02   -0.12342E-03   -0.21700E-04  1104   0.703E-02    0.204E-02
RMM:   3    -0.930694548523E+02   -0.25586E-04   -0.52483E-05   997   0.350E-02
 1979 T=   259. E= -.93166474E+02 F= -.93069455E+02 E0= -.93054238E+02  EK= 0.36850E+00 SP= -.49E+00 SK= 0.25E-01
       N       E                     dE             d eps       ncg     rms          rms(c)
DAV:   1    -0.930535322291E+02    0.15897E-01   -0.33583E-04  1416   0.231E-01    0.298E-02
RMM:   2    -0.930537689483E+02   -0.23672E-03   -0.36978E-04  1150   0.914E-02    0.300E-02
RMM:   3    -0.930538442071E+02   -0.75259E-04   -0.92768E-05  1035   0.554E-02
 1980 T=   236. E= -.93166087E+02 F= -.93053844E+02 E0= -.93038509E+02  EK= 0.33501E+00 SP= -.47E+00 SK= 0.21E-01
       N       E                     dE             d eps       ncg     rms          rms(c)
DAV:   1    -0.930359543323E+02    0.17815E-01   -0.58926E-04  1752   0.428E-01    0.344E-02
RMM:   2    -0.930361114392E+02   -0.15711E-03   -0.55612E-04  1427   0.111E-01    0.513E-02
RMM:   3    -0.930360774753E+02    0.33964E-04   -0.16163E-04  1029   0.712E-02
 1981 T=   213. E= -.93165965E+02 F= -.93036077E+02 E0= -.93020636E+02  EK= 0.30248E+00 SP= -.45E+00 SK= 0.16E-01
       N       E                     dE             d eps       ncg     rms          rms(c)
DAV:   1    -0.930175690127E+02    0.18542E-01   -0.98889E-04  2264   0.446E-01    0.514E-02
RMM:   2    -0.930177970865E+02   -0.22807E-03   -0.49713E-04  1381   0.115E-01    0.564E-02
RMM:   3    -0.930178298572E+02   -0.32771E-04   -0.17354E-04  1039   0.769E-02
 1982 T=   192. E= -.93165181E+02 F= -.93017830E+02 E0= -.93002306E+02  EK= 0.27361E+00 SP= -.43E+00 SK= 0.11E-01
       N       E                     dE             d eps       ncg     rms          rms(c)
DAV:   1    -0.930028724926E+02    0.14925E-01   -0.11517E-03  2248   0.255E-01    0.561E-02
RMM:   2    -0.930030403078E+02   -0.16782E-03   -0.35291E-04  1168   0.100E-01    0.410E-02
RMM:   3    -0.930031437734E+02   -0.10347E-03   -0.19035E-04  1044   0.786E-02    0.347E-02
RMM:   4    -0.930032772246E+02   -0.13345E-03   -0.66165E-05  1035   0.484E-02    0.910E-03
RMM:   5    -0.930033840439E+02   -0.10682E-03   -0.22424E-05  1025   0.196E-02    0.749E-03
RMM:   6    -0.930034273738E+02   -0.43330E-04   -0.13097E-05  1003   0.206E-02
 1983 T=   176. E= -.93165503E+02 F= -.93003427E+02 E0= -.92987824E+02  EK= 0.25081E+00 SP= -.42E+00 SK= 0.56E-02
       N       E                     dE             d eps       ncg     rms          rms(c)
DAV:   1    -0.929920198464E+02    0.11364E-01   -0.42079E-04  1600   0.260E-01    0.307E-02
RMM:   2    -0.929923937610E+02   -0.37391E-03   -0.88969E-04  1767   0.184E-01    0.639E-02
RMM:   3    -0.929924055561E+02   -0.11795E-04   -0.13558E-04  1031   0.668E-02
 1984 T=   166. E= -.93164317E+02 F= -.92992406E+02 E0= -.92976744E+02  EK= 0.23597E+00 SP= -.41E+00 SK= 0.19E-02
       N       E                     dE             d eps       ncg     rms          rms(c)
DAV:   1    -0.929858774140E+02    0.65163E-02   -0.74515E-04  1576   0.157E-01    0.218E-02
RMM:   2    -0.929865926109E+02   -0.71520E-03   -0.48100E-04  1399   0.109E-01    0.435E-02
RMM:   3    -0.929867309740E+02   -0.13836E-03   -0.90620E-05  1042   0.560E-02    0.136E-02
RMM:   4    -0.929879667499E+02   -0.12358E-02   -0.10475E-04  1083   0.254E-02    0.160E-02
RMM:   5    -0.929887086124E+02   -0.74186E-03   -0.74481E-05  1071   0.380E-02    0.147E-02
RMM:   6    -0.929893798227E+02   -0.67121E-03   -0.80154E-05  1078   0.240E-02    0.664E-03
RMM:   7    -0.929896901291E+02   -0.31031E-03   -0.41966E-05  1059   0.208E-02    0.858E-03
RMM:   8    -0.929898138033E+02   -0.12367E-03   -0.22763E-05  1051   0.196E-02    0.413E-03
RMM:   9    -0.929898860406E+02   -0.72237E-04   -0.86722E-06  1010   0.119E-02
 1985 T=   162. E= -.93165350E+02 F= -.92989886E+02 E0= -.92974206E+02  EK= 0.23023E+00 SP= -.41E+00 SK= 0.11E-03
       N       E                     dE             d eps       ncg     rms          rms(c)
DAV:   1    -0.929901591427E+02   -0.34534E-03   -0.12591E-03  1864   0.168E-01    0.231E-02
RMM:   2    -0.929906921929E+02   -0.53305E-03   -0.29185E-04  1190   0.873E-02    0.332E-02
RMM:   3    -0.929908361157E+02   -0.14392E-03   -0.82448E-05  1041   0.525E-02    0.142E-02
RMM:   4    -0.929919941503E+02   -0.11580E-02   -0.82359E-05  1079   0.227E-02    0.123E-02
RMM:   5    -0.929924481019E+02   -0.45395E-03   -0.49145E-05  1061   0.349E-02    0.127E-02
RMM:   6    -0.929927812108E+02   -0.33311E-03   -0.44120E-05  1072   0.226E-02    0.575E-03
RMM:   7    -0.929928975680E+02   -0.11636E-03   -0.21699E-05  1054   0.172E-02    0.695E-03
RMM:   8    -0.929929878893E+02   -0.90321E-04   -0.15575E-05  1042   0.162E-02
 1986 T=   164. E= -.93165363E+02 F= -.92992988E+02 E0= -.92977301E+02  EK= 0.23381E+00 SP= -.41E+00 SK= 0.50E-03
       N       E                     dE             d eps       ncg     rms          rms(c)
DAV:   1    -0.929998835646E+02   -0.69860E-02   -0.17252E-04  1320   0.147E-01    0.121E-02
RMM:   2    -0.930005243589E+02   -0.64079E-03   -0.13460E-04  1090   0.466E-02    0.167E-02
RMM:   3    -0.930007038588E+02   -0.17950E-03   -0.41605E-05  1036   0.354E-02    0.759E-03
RMM:   4    -0.930018810739E+02   -0.11772E-02   -0.94302E-05  1086   0.182E-02    0.642E-03
RMM:   5    -0.930021490963E+02   -0.26802E-03   -0.24040E-05  1055   0.196E-02    0.446E-03
RMM:   6    -0.930022497679E+02   -0.10067E-03   -0.13216E-05  1028   0.129E-02    0.240E-03
RMM:   7    -0.930022827640E+02   -0.32996E-04   -0.50339E-06   996   0.108E-02
 1987 T=   173. E= -.93165693E+02 F= -.93002283E+02 E0= -.92986610E+02  EK= 0.24599E+00 SP= -.41E+00 SK= 0.29E-02
       N       E                     dE             d eps       ncg     rms          rms(c)
DAV:   1    -0.930145613644E+02   -0.12312E-01   -0.16797E-04  1264   0.165E-01    0.897E-03
RMM:   2    -0.930148213082E+02   -0.25994E-03   -0.10658E-04  1077   0.479E-02    0.119E-02
RMM:   3    -0.930149019736E+02   -0.80665E-04   -0.33064E-05  1028   0.302E-02
 1988 T=   187. E= -.93165188E+02 F= -.93014902E+02 E0= -.92999269E+02  EK= 0.26522E+00 SP= -.42E+00 SK= 0.69E-02
       N       E                     dE             d eps       ncg     rms          rms(c)
DAV:   1    -0.930294835363E+02   -0.14662E-01   -0.12575E-04  1280   0.170E-01    0.843E-03
RMM:   2    -0.930297875164E+02   -0.30398E-03   -0.11478E-04  1092   0.407E-02    0.939E-03
RMM:   3    -0.930299038932E+02   -0.11638E-03   -0.31201E-05  1022   0.273E-02    0.703E-03
RMM:   4    -0.930301878059E+02   -0.28391E-03   -0.16794E-05  1019   0.176E-02    0.554E-03
RMM:   5    -0.930305927031E+02   -0.40490E-03   -0.19153E-05  1043   0.169E-02    0.654E-03
RMM:   6    -0.930307605709E+02   -0.16787E-03   -0.12194E-05  1029   0.151E-02    0.252E-03
RMM:   7    -0.930308358075E+02   -0.75237E-04   -0.10450E-05  1023   0.118E-02
 1989 T=   204. E= -.93166179E+02 F= -.93030836E+02 E0= -.93015258E+02  EK= 0.28939E+00 SP= -.44E+00 SK= 0.12E-01
       N       E                     dE             d eps       ncg     rms          rms(c)
DAV:   1    -0.930431016919E+02   -0.12341E-01   -0.19193E-04  1216   0.226E-01    0.119E-02
RMM:   2    -0.930437117941E+02   -0.61010E-03   -0.12351E-04  1102   0.376E-02    0.144E-02
RMM:   3    -0.930439132336E+02   -0.20144E-03   -0.34404E-05  1034   0.301E-02    0.827E-03
RMM:   4    -0.930449120937E+02   -0.99886E-03   -0.64217E-05  1073   0.170E-02    0.603E-03
RMM:   5    -0.930452966678E+02   -0.38457E-03   -0.28465E-05  1054   0.172E-02    0.484E-03
RMM:   6    -0.930453889147E+02   -0.92247E-04   -0.98448E-06  1022   0.134E-02
 1990 T=   222. E= -.93166548E+02 F= -.93045389E+02 E0= -.93029888E+02  EK= 0.31602E+00 SP= -.45E+00 SK= 0.17E-01
       N       E                     dE             d eps       ncg     rms          rms(c)
DAV:   1    -0.930560907480E+02   -0.10794E-01   -0.19507E-04  1288   0.220E-01    0.674E-03
RMM:   2    -0.930562558212E+02   -0.16507E-03   -0.99987E-05  1097   0.331E-02    0.874E-03
RMM:   3    -0.930563042026E+02   -0.48381E-04   -0.20948E-05  1026   0.226E-02
 1991 T=   241. E= -.93166452E+02 F= -.93056304E+02 E0= -.93040899E+02  EK= 0.34267E+00 SP= -.47E+00 SK= 0.21E-01
       N       E                     dE             d eps       ncg     rms          rms(c)
DAV:   1    -0.930619723289E+02   -0.57165E-02   -0.18092E-04  1240   0.232E-01    0.849E-03
RMM:   2    -0.930622010072E+02   -0.22868E-03   -0.12437E-04  1103   0.292E-02    0.902E-03
RMM:   3    -0.930622864251E+02   -0.85418E-04   -0.26916E-05  1021   0.282E-02
 1992 T=   258. E= -.93166485E+02 F= -.93062286E+02 E0= -.93046982E+02  EK= 0.36717E+00 SP= -.50E+00 SK= 0.25E-01
       N       E                     dE             d eps       ncg     rms          rms(c)
DAV:   1    -0.930621885436E+02    0.12464E-04   -0.23353E-04  1272   0.266E-01    0.674E-03
RMM:   2    -0.930623319441E+02   -0.14340E-03   -0.12121E-04  1080   0.442E-02    0.109E-02
RMM:   3    -0.930623668244E+02   -0.34880E-04   -0.30140E-05   991   0.269E-02
 1993 T=   273. E= -.93166787E+02 F= -.93062367E+02 E0= -.93047176E+02  EK= 0.38796E+00 SP= -.52E+00 SK= 0.28E-01
       N       E                     dE             d eps       ncg     rms          rms(c)
DAV:   1    -0.930559813737E+02    0.63506E-02   -0.30590E-04  1384   0.236E-01    0.953E-03
RMM:   2    -0.930560185329E+02   -0.37159E-04   -0.14625E-04  1085   0.402E-02
 1994 T=   284. E= -.93167092E+02 F= -.93056019E+02 E0= -.93040942E+02  EK= 0.40424E+00 SP= -.54E+00 SK= 0.30E-01
       N       E                     dE             d eps       ncg     rms          rms(c)
DAV:   1    -0.930426407785E+02    0.13341E-01   -0.73277E-04  1840   0.407E-01    0.161E-02
RMM:   2    -0.930429048883E+02   -0.26411E-03   -0.31502E-04  1144   0.740E-02    0.261E-02
RMM:   3    -0.930429687184E+02   -0.63830E-04   -0.67754E-05  1026   0.403E-02
 1995 T=   293. E= -.93166578E+02 F= -.93042969E+02 E0= -.93028017E+02  EK= 0.41597E+00 SP= -.57E+00 SK= 0.31E-01
       N       E                     dE             d eps       ncg     rms          rms(c)
DAV:   1    -0.930239600072E+02    0.18945E-01   -0.87516E-04  1784   0.267E-01    0.414E-02
RMM:   2    -0.930245591534E+02   -0.59915E-03   -0.45747E-04  1288   0.117E-01    0.352E-02
RMM:   3    -0.930248718743E+02   -0.31272E-03   -0.12394E-04  1066   0.547E-02    0.301E-02
RMM:   4    -0.930256390334E+02   -0.76716E-03   -0.91096E-05  1081   0.374E-02    0.700E-03
RMM:   5    -0.930258246204E+02   -0.18559E-03   -0.29019E-05  1049   0.220E-02    0.843E-03
RMM:   6    -0.930258911693E+02   -0.66549E-04   -0.13240E-05  1018   0.191E-02
 1996 T=   298. E= -.93166587E+02 F= -.93025891E+02 E0= -.93011064E+02  EK= 0.42400E+00 SP= -.60E+00 SK= 0.31E-01
       N       E                     dE             d eps       ncg     rms          rms(c)
DAV:   1    -0.930047517451E+02    0.21073E-01   -0.45976E-04  1560   0.308E-01    0.614E-02
RMM:   2    -0.930051893158E+02   -0.43757E-03   -0.23275E-04  1119   0.582E-02    0.389E-02
RMM:   3    -0.930056880406E+02   -0.49872E-03   -0.21138E-04  1077   0.808E-02    0.456E-02
RMM:   4    -0.930059702164E+02   -0.28218E-03   -0.96893E-05  1036   0.606E-02    0.483E-03
RMM:   5    -0.930060684401E+02   -0.98224E-04   -0.18423E-05   986   0.147E-02
 1997 T=   302. E= -.93166597E+02 F= -.93006068E+02 E0= -.92991368E+02  EK= 0.42976E+00 SP= -.62E+00 SK= 0.31E-01
       N       E                     dE             d eps       ncg     rms          rms(c)
DAV:   1    -0.929845252349E+02    0.21445E-01   -0.58389E-04  1424   0.283E-01    0.209E-02
RMM:   2    -0.929848116371E+02   -0.28640E-03   -0.28381E-04  1158   0.641E-02    0.215E-02
RMM:   3    -0.929849109789E+02   -0.99342E-04   -0.77810E-05  1042   0.430E-02
 1998 T=   306. E= -.93166130E+02 F= -.92984911E+02 E0= -.92970321E+02  EK= 0.43490E+00 SP= -.65E+00 SK= 0.31E-01
       N       E                     dE             d eps       ncg     rms          rms(c)
DAV:   1    -0.929649814224E+02    0.19830E-01   -0.46172E-04  1712   0.233E-01    0.215E-02
RMM:   2    -0.929651600427E+02   -0.17862E-03   -0.32113E-04  1148   0.850E-02    0.260E-02
RMM:   3    -0.929652092208E+02   -0.49178E-04   -0.84126E-05  1015   0.490E-02
 1999 T=   310. E= -.93166005E+02 F= -.92965209E+02 E0= -.92950718E+02  EK= 0.44130E+00 SP= -.67E+00 SK= 0.30E-01
       N       E                     dE             d eps       ncg     rms          rms(c)
DAV:   1    -0.929473458629E+02    0.17814E-01   -0.80171E-04  2048   0.348E-01    0.182E-02
RMM:   2    -0.929477729092E+02   -0.42705E-03   -0.29502E-04  1147   0.724E-02    0.251E-02
RMM:   3    -0.929479063321E+02   -0.13342E-03   -0.74994E-05  1039   0.459E-02    0.109E-02
RMM:   4    -0.929482466615E+02   -0.34033E-03   -0.27218E-05  1034   0.235E-02    0.784E-03
RMM:   5    -0.929490045120E+02   -0.75785E-03   -0.35390E-05  1065   0.203E-02    0.861E-03
RMM:   6    -0.929492893374E+02   -0.28483E-03   -0.22810E-05  1057   0.211E-02    0.644E-03
RMM:   7    -0.929493048688E+02   -0.15531E-04   -0.64817E-06   999   0.128E-02
 2000 T=   317. E= -.93166648E+02 F= -.92949305E+02 E0= -.92934904E+02  EK= 0.45080E+00 SP= -.70E+00 SK= 0.29E-01
