PROCAR lm decomposed
# of k-points:    5         # of bands:  184         # of ions:   29

 k-point     1 :    0.00000000 0.00000000 0.00000000     weight = 0.11111111

band     1 # energy  -25.92629795 # occ.  2.00000000
 
ion      s     py     pz     px    dxy    dyz    dz2    dxz  x2-y2    tot
    1  0.000  0.000  0.000  0.000  0.000  0.000  0.000  0.000  0.000  0.000
    2  0.000  0.000  0.000  0.000  0.000  0.000  0.000  0.000  0.000  0.000
    3  0.000  0.000  0.000  0.000  0.000  0.000  0.000  0.000  0.000  0.000
    4  0.000  0.000  0.000  0.000  0.000  0.000  0.000  0.000  0.000  0.000
    5  0.000  0.000  0.000  0.000  0.000  0.000  0.000  0.000  0.000  0.000
    6  0.000  0.000  0.000  0.000  0.000  0.000  0.000  0.000  0.000  0.000
    7  0.000  0.000  0.000  0.000  0.000  0.000  0.000  0.000  0.000  0.000
    8  0.000  0.000  0.000  0.000  0.000  0.000  0.000  0.000  0.000  0.000
    9  0.000  0.000  0.000  0.000  0.000  0.000  0.000  0.000  0.000  0.000
   10  0.000  0.000  0.000  0.000  0.000  0.000  0.000  0.000  0.000  0.000
   11  0.000  0.000  0.000  0.000  0.000  0.000  0.000  0.000  0.000  0.000
   12  0.000  0.000  0.000  0.000  0.000  0.000  0.000  0.000  0.000  0.000
   13  0.000  0.000  0.000  0.000  0.000  0.000  0.000  0.000  0.000  0.000
   14  0.000  0.000  0.000  0.000  0.000  0.000  0.000  0.000  0.000  0.000
   15  0.000  0.000  0.000  0.000  0.000  0.000  0.000  0.000  0.000  0.000
   16  0.000  0.000  0.000  0.000  0.000  0.000  0.000  0.000  0.000  0.000
   17  0.000  0.000  0.000  0.000  0.000  0.000  0.000  0.000  0.000  0.000
   18  0.000  0.000  0.000  0.000  0.000  0.000  0.000  0.000  0.000  0.000
   19  0.000  0.000  0.000  0.000  0.000  0.000  0.000  0.000  0.000  0.000
   20  0.000  0.000  0.000  0.000  0.000  0.000  0.000  0.000  0.000  0.000
   21  0.000  0.000  0.000  0.000  0.000  0.000  0.000  0.000  0.000  0.000
   22  0.000  0.000  0.000  0.000  0.000  0.000  0.000  0.000  0.000  0.000
   23  0.000  0.000  0.000  0.000  0.000  0.000  0.000  0.000  0.000  0.000
   24  0.000  0.000  0.000  0.000  0.000  0.000  0.000  0.000  0.000  0.000
   25  0.000  0.000  0.000  0.000  0.000  0.000  0.000  0.000  0.000  0.000
   26  0.000  0.000  0.000  0.000  0.000  0.000  0.000  0.000  0.000  0.000
   27  0.000  0.000  0.000  0.000  0.000  0.000  0.000  0.000  0.000  0.000
   28  0.655  0.003  0.075  0.001  0.000  0.000  0.000  0.000  0.000  0.734
   29  0.138  0.004  0.092  0.001  0.000  0.000  0.000  0.000  0.000  0.234
tot    0.792  0.007  0.166  0.002  0.000  0.000  0.000  0.000  0.000  0.968
 
band     2 # energy  -12.00438304 # occ.  2.00000000
 
ion      s     py     pz     px    dxy    dyz    dz2    dxz  x2-y2    tot
    1  0.000  0.000  0.000  0.000  0.000  0.000  0.000  0.000  0.000  0.000
    2  0.000  0.000  0.000  0.000  0.000  0.000  0.000  0.000  0.000  0.000
    3  0.000  0.000  0.000  0.000  0.000  0.000  0.000  0.000  0.000  0.000
    4  0.000  0.000  0.000  0.000  0.000  0.000  0.000  0.000  0.000  0.000
    5  0.000  0.000  0.000  0.000  0.000  0.000  0.000  0.000  0.000  0.000
    6  0.000  0.000  0.000  0.000  0.000  0.000  0.000  0.000  0.000  0.000
    7  0.000  0.000  0.000  0.000  0.000  0.000  0.000  0.000  0.000  0.000
    8  0.000  0.000  0.000  0.000  0.000  0.000  0.000  0.000  0.000  0.000
    9  0.000  0.000  0.000  0.000  0.000  0.000  0.000  0.000  0.000  0.000
   10  0.000  0.000  0.000  0.000  0.000  0.000  0.000  0.000  0.000  0.000
   11  0.000  0.000  0.000  0.000  0.000  0.000  0.000  0.000  0.000  0.000
   12  0.000  0.000  0.000  0.000  0.000  0.000  0.000  0.000  0.000  0.000
   13  0.000  0.000  0.000  0.000  0.000  0.000  0.000  0.000  0.000  0.000
   14  0.000  0.000  0.000  0.000  0.000  0.000  0.000  0.000  0.000  0.000
   15  0.000  0.000  0.000  0.000  0.000  0.000  0.000  0.000  0.000  0.000
   16  0.000  0.000  0.000  0.000  0.000  0.000  0.000  0.000  0.000  0.000
   17  0.000  0.000  0.000  0.000  0.000  0.000  0.000  0.000  0.000  0.000
   18  0.000  0.000  0.000  0.000  0.000  0.000  0.000  0.000  0.000  0.000
   19  0.000  0.000  0.000  0.000  0.000  0.000  0.000  0.000  0.000  0.000
   20  0.000  0.000  0.000  0.000  0.000  0.000  0.000  0.000  0.000  0.000
   21  0.000  0.000  0.000  0.000  0.000  0.000  0.000  0.000  0.000  0.000
   22  0.000  0.000  0.000  0.000  0.000  0.000  0.000  0.000  0.000  0.000
   23  0.010  0.000  0.005  0.000  0.000  0.000  0.006  0.000  0.000  0.022
   24  0.000  0.000  0.000  0.000  0.000  0.000  0.000  0.000  0.000  0.000
   25  0.000  0.000  0.000  0.000  0.000  0.000  0.000  0.000  0.000  0.000
   26  0.000  0.000  0.000  0.000  0.000  0.000  0.000  0.000  0.000  0.000
   27  0.000  0.000  0.000  0.000  0.000  0.000  0.000  0.000  0.000  0.000
   28  0.157  0.011  0.286  0.003  0.000  0.000  0.000  0.000  0.000  0.458
   29  0.266  0.000  0.001  0.000  0.000  0.000  0.000  0.000  0.000  0.266
tot    0.435  0.011  0.292  0.003  0.000  0.000  0.006  0.000  0.000  0.748
 
band     3 # energy  -10.27943714 # occ.  2.00000000
 
ion      s     py     pz     px    dxy    dyz    dz2    dxz  x2-y2    tot
    1  0.014  0.000  0.001  0.000  0.000  0.000  0.000  0.000  0.000  0.016
    2  0.015  0.000  0.001  0.000  0.000  0.000  0.000  0.000  0.000  0.016
    3  0.014  0.000  0.001  0.000  0.000  0.000  0.000  0.000  0.000  0.016
    4  0.014  0.000  0.001  0.000  0.000  0.000  0.000  0.000  0.000  0.016
    5  0.014  0.000  0.001  0.000  0.000  0.000  0.000  0.000  0.000  0.016
    6  0.014  0.000  0.001  0.000  0.000  0.000  0.000  0.000  0.000  0.016
    7  0.015  0.000  0.002  0.000  0.000  0.000  0.000  0.000  0.000  0.016
    8  0.015  0.000  0.002  0.000  0.000  0.000  0.000  0.000  0.000  0.017
    9  0.014  0.000  0.001  0.000  0.000  0.000  0.000  0.000  0.000  0.016
   10  0.030  0.000  0.000  0.000  0.000  0.000  0.000  0.000  0.000  0.031
   11  0.032  0.000  0.000  0.000  0.000  0.000  0.000  0.000  0.000  0.032
   12  0.031  0.000  0.000  0.000  0.000  0.000  0.000  0.000  0.000  0.031
   13  0.033  0.000  0.000  0.000  0.000  0.000  0.000  0.000  0.000  0.034
   14  0.032  0.000  0.000  0.000  0.000  0.000  0.000  0.000  0.000  0.033
   15  0.032  0.000  0.000  0.000  0.000  0.000  0.000  0.000  0.000  0.033
   16  0.035  0.000  0.000  0.000  0.000  0.000  0.000  0.000  0.000  0.036
   17  0.033  0.000  0.000  0.000  0.000  0.000  0.000  0.000  0.000  0.034
   18  0.032  0.000  0.000  0.000  0.000  0.000  0.000  0.000  0.000  0.032
   19  0.011  0.000  0.001  0.000  0.000  0.000  0.000  0.000  0.000  0.012
   20  0.012  0.000  0.001  0.000  0.000  0.000  0.000  0.000  0.000  0.014
   21  0.011  0.000  0.001  0.000  0.000  0.000  0.000  0.000  0.000  0.013
   22  0.011  0.000  0.001  0.000  0.000  0.000  0.000  0.000  0.000  0.012
   23  0.011  0.000  0.001  0.000  0.000  0.000  0.000  0.000  0.000  0.011
   24  0.011  0.000  0.001  0.000  0.000  0.000  0.000  0.000  0.000  0.012
   25  0.013  0.000  0.001  0.000  0.000  0.000  0.000  0.000  0.000  0.014
   26  0.016  0.000  0.002  0.000  0.000  0.000  0.000  0.000  0.000  0.017
   27  0.012  0.000  0.001  0.000  0.000  0.000  0.000  0.000  0.000  0.014
   28  0.001  0.001  0.006  0.000  0.000  0.000  0.000  0.000  0.000  0.007
   29  0.000  0.000  0.002  0.000  0.000  0.000  0.000  0.000  0.000  0.003
tot    0.531  0.001  0.032  0.000  0.000  0.000  0.003  0.000  0.000  0.567
 
band     4 # energy   -8.86157854 # occ.  2.00000000
 
ion      s     py     pz     px    dxy    dyz    dz2    dxz  x2-y2    tot
    1  0.001  0.000  0.000  0.000  0.000  0.000  0.000  0.000  0.000  0.001
    2  0.001  0.000  0.000  0.000  0.000  0.000  0.000  0.000  0.000  0.001
    3  0.001  0.000  0.000  0.000  0.000  0.000  0.000  0.000  0.000  0.001
    4  0.001  0.000  0.000  0.000  0.000  0.000  0.000  0.000  0.000  0.001
    5  0.000  0.000  0.000  0.000  0.000  0.000  0.000  0.000  0.000  0.000
    6  0.001  0.000  0.000  0.000  0.000  0.000  0.000  0.000  0.000  0.001
    7  0.001  0.000  0.000  0.000  0.000  0.000  0.000  0.000  0.000  0.001
    8  0.001  0.000  0.000  0.000  0.000  0.000  0.000  0.000  0.000  0.001
    9  0.001  0.000  0.000  0.000  0.000  0.000  0.000  0.000  0.000  0.001
   10  0.000  0.000  0.000  0.000  0.000  0.000  0.000  0.000  0.000  0.000
   11  0.000  0.000  0.000  0.000  0.000  0.000  0.000  0.000  0.000  0.001
   12  0.001  0.000  0.000  0.000  0.000  0.000  0.000  0.000  0.000  0.001
   13  0.000  0.000  0.000  0.000  0.000  0.000  0.000  0.000  0.000  0.001
   14  0.000  0.000  0.000  0.000  0.000  0.000  0.000  0.000  0.000  0.001
   15  0.001  0.000  0.000  0.000  0.000  0.000  0.000  0.000  0.000  0.001
   16  0.001  0.000  0.000  0.000  0.000  0.000  0.000  0.000  0.000  0.001
   17  0.001  0.000  0.000  0.000  0.000  0.000  0.000  0.000  0.000  0.001
   18  0.002  0.000  0.000  0.000  0.000  0.000  0.000  0.000  0.000  0.002
   19  0.000  0.000  0.000  0.000  0.000  0.000  0.000  0.000  0.000  0.000
   20  0.001  0.000  0.000  0.000  0.000  0.000  0.000  0.000  0.000  0.002
   21  0.000  0.000  0.000  0.000  0.000  0.000  0.000  0.000  0.000  0.000
   22  0.001  0.000  0.000  0.000  0.000  0.000  0.000  0.000  0.000  0.001
   23  0.021  0.000  0.004  0.000  0.000  0.003  0.011  0.001  0.000  0.040
   24  0.002  0.000  0.000  0.000  0.000  0.000  0.000  0.000  0.000  0.003
   25  0.000  0.000  0.000  0.000  0.000  0.000  0.000  0.000  0.000  0.000
   26  0.000  0.000  0.000  0.000  0.000  0.000  0.000  0.000  0.000  0.001
   27  0.000  0.000  0.000  0.000  0.000  0.000  0.000  0.000  0.000  0.000
   28  0.002  0.309  0.009  0.106  0.000  0.000  0.000  0.000  0.000  0.427
   29  0.010  0.058  0.089  0.021  0.000  0.000  0.000  0.000  0.000  0.179
tot    0.050  0.369  0.105  0.129  0.000  0.003  0.012  0.001  0.001  0.670
 
band     5 # energy   -8.80498761 # occ.  2.00000000
 
ion      s     py     pz     px    dxy    dyz    dz2    dxz  x2-y2    tot
    1  0.000  0.000  0.000  0.000  0.000  0.000  0.000  0.000  0.000  0.000
    2  0.000  0.000  0.000  0.000  0.000  0.000  0.000  0.000  0.000  0.000
    3  0.000  0.000  0.000  0.000  0.000  0.000  0.000  0.000  0.000  0.000
    4  0.000  0.000  0.000  0.000  0.000  0.000  0.000  0.000  0.000  0.000
    5  0.000  0.000  0.000  0.000  0.000  0.000  0.000  0.000  0.000  0.000
    6  0.000  0.000  0.000  0.000  0.000  0.000  0.000  0.000  0.000  0.000
    7  0.000  0.000  0.000  0.000  0.000  0.000  0.000  0.000  0.000  0.000
    8  0.000  0.000  0.000  0.000  0.000  0.000  0.000  0.000  0.000  0.000
    9  0.000  0.000  0.000  0.000  0.000  0.000  0.000  0.000  0.000  0.000
   10  0.000  0.000  0.000  0.000  0.000  0.000  0.000  0.000  0.000  0.000
   11  0.000  0.000  0.000  0.000  0.000  0.000  0.000  0.000  0.000  0.000
   12  0.000  0.000  0.000  0.000  0.000  0.000  0.000  0.000  0.000  0.000
   13  0.000  0.000  0.000  0.000  0.000  0.000  0.000  0.000  0.000  0.000
   14  0.000  0.000  0.000  0.000  0.000  0.000  0.000  0.000  0.000  0.000
   15  0.000  0.000  0.000  0.000  0.000  0.000  0.000  0.000  0.000  0.000
   16  0.000  0.000  0.000  0.000  0.000  0.000  0.000  0.000  0.000  0.000
   17  0.000  0.000  0.000  0.000  0.000  0.000  0.000  0.000  0.000  0.000
   18  0.000  0.000  0.000  0.000  0.000  0.000  0.000  0.000  0.000  0.000
   19  0.000  0.000  0.000  0.000  0.000  0.000  0.000  0.000  0.000  0.000
   20  0.000  0.000  0.000  0.000  0.000  0.000  0.000  0.000  0.000  0.000
   21  0.000  0.000  0.000  0.000  0.000  0.000  0.000  0.000  0.000  0.000
   22  0.000  0.000  0.000  0.000  0.000  0.000  0.000  0.000  0.000  0.000
   23  0.000  0.000  0.000  0.000  0.000  0.001  0.000  0.002  0.000  0.004
   24  0.000  0.000  0.000  0.000  0.000  0.000  0.000  0.000  0.000  0.000
   25  0.000  0.000  0.000  0.000  0.000  0.000  0.000  0.000  0.000  0.000
   26  0.000  0.000  0.000  0.000  0.000  0.000  0.000  0.000  0.000  0.000
   27  0.000  0.000  0.000  0.000  0.000  0.000  0.000  0.000  0.000  0.000
   28  0.000  0.133  0.000  0.382  0.000  0.000  0.000  0.000  0.000  0.515
   29  0.000  0.040  0.000  0.115  0.000  0.000  0.000  0.000  0.000  0.154
tot    0.001  0.173  0.000  0.497  0.000  0.001  0.000  0.002  0.000  0.675
 
band     6 # energy   -8.66024227 # occ.  2.00000000
 
ion      s     py     pz     px    dxy    dyz    dz2    dxz  x2-y2    tot
    1  0.003  0.000  0.000  0.000  0.000  0.000  0.000  0.000  0.000  0.004
    2  0.002  0.000  0.000  0.000  0.000  0.000  0.000  0.000  0.000  0.002
    3  0.004  0.000  0.000  0.000  0.000  0.000  0.000  0.000  0.000  0.004
    4  0.002  0.000  0.000  0.000  0.000  0.000  0.000  0.000  0.000  0.002
    5  0.000  0.000  0.000  0.000  0.000  0.000  0.000  0.000  0.000  0.001
    6  0.002  0.000  0.000  0.000  0.000  0.000  0.000  0.000  0.000  0.002
    7  0.003  0.000  0.000  0.000  0.000  0.000  0.000  0.000  0.000  0.003
    8  0.001  0.000  0.000  0.000  0.000  0.000  0.000  0.000  0.000  0.002
    9  0.003  0.000  0.000  0.000  0.000  0.000  0.000  0.000  0.000  0.003
   10  0.000  0.000  0.001  0.000  0.000  0.000  0.000  0.000  0.000  0.001
   11  0.000  0.000  0.001  0.000  0.000  0.000  0.000  0.000  0.000  0.001
   12  0.002  0.000  0.000  0.000  0.000  0.000  0.000  0.000  0.000  0.002
   13  0.001  0.000  0.001  0.000  0.000  0.000  0.000  0.000  0.000  0.002
   14  0.000  0.000  0.001  0.000  0.000  0.000  0.000  0.000  0.000  0.002
   15  0.001  0.000  0.000  0.000  0.000  0.000  0.000  0.000  0.000  0.002
   16  0.001  0.000  0.000  0.000  0.000  0.000  0.000  0.000  0.000  0.002
   17  0.002  0.000  0.000  0.000  0.000  0.000  0.000  0.000  0.000  0.002
   18  0.005  0.000  0.000  0.000  0.000  0.000  0.000  0.000  0.000  0.005
   19  0.000  0.000  0.000  0.000  0.000  0.000  0.000  0.000  0.000  0.001
   20  0.001  0.000  0.000  0.000  0.000  0.000  0.000  0.000  0.000  0.002
   21  0.000  0.000  0.000  0.000  0.000  0.000  0.000  0.000  0.000  0.000
   22  0.003  0.000  0.000  0.001  0.000  0.000  0.000  0.000  0.000  0.004
   23  0.049  0.000  0.008  0.000  0.000  0.000  0.027  0.000  0.000  0.084
   24  0.002  0.000  0.000  0.000  0.000  0.000  0.000  0.000  0.000  0.004
   25  0.000  0.000  0.000  0.000  0.000  0.000  0.000  0.000  0.000  0.001
   26  0.003  0.001  0.000  0.000  0.000  0.000  0.000  0.000  0.000  0.005
   27  0.000  0.000  0.000  0.000  0.000  0.000  0.000  0.000  0.000  0.001
   28  0.005  0.059  0.212  0.022  0.000  0.000  0.000  0.000  0.000  0.298
   29  0.036  0.057  0.106  0.019  0.000  0.000  0.000  0.000  0.000  0.218
tot    0.130  0.119  0.332  0.043  0.000  0.001  0.030  0.001  0.002  0.660
 
band     7 # energy   -8.00317702 # occ.  2.00000000
 
ion      s     py     pz     px    dxy    dyz    dz2    dxz  x2-y2    tot
    1  0.000  0.002  0.000  0.002  0.000  0.003  0.000  0.002  0.001  0.010
    2  0.000  0.002  0.000  0.002  0.000  0.003  0.000  0.003  0.000  0.010
    3  0.019  0.002  0.002  0.000  0.000  0.003  0.000  0.000  0.001  0.026
    4  0.001  0.001  0.000  0.002  0.000  0.001  0.000  0.002  0.001  0.009
    5  0.002  0.001  0.000  0.002  0.000  0.001  0.000  0.003  0.001  0.010
    6  0.033  0.001  0.003  0.000  0.000  0.001  0.000  0.000  0.000  0.039
    7  0.014  0.000  0.002  0.002  0.000  0.000  0.001  0.002  0.000  0.022
    8  0.013  0.000  0.002  0.002  0.000  0.000  0.001  0.003  0.000  0.022
    9  0.001  0.000  0.000  0.000  0.000  0.000  0.000  0.000  0.004  0.005
   10  0.000  0.000  0.000  0.000  0.000  0.000  0.000  0.000  0.017  0.018
   11  0.055  0.000  0.000  0.003  0.000  0.000  0.000  0.000  0.001  0.060
   12  0.047  0.000  0.000  0.004  0.000  0.000  0.000  0.000  0.001  0.052
   13  0.039  0.006  0.000  0.000  0.000  0.000  0.000  0.000  0.004  0.048
   14  0.003  0.004  0.000  0.004  0.000  0.000  0.000  0.000  0.003  0.014
   15  0.002  0.004  0.000  0.004  0.000  0.000  0.000  0.000  0.002  0.012
   16  0.079  0.003  0.000  0.000  0.000  0.000  0.000  0.000  0.001  0.084
   17  0.000  0.002  0.000  0.004  0.000  0.000  0.000  0.000  0.008  0.015
   18  0.001  0.002  0.000  0.004  0.000  0.000  0.000  0.000  0.006  0.013
   19  0.005  0.002  0.001  0.001  0.000  0.002  0.000  0.002  0.000  0.013
   20  0.000  0.002  0.000  0.002  0.000  0.002  0.000  0.002  0.000  0.009
   21  0.008  0.002  0.001  0.000  0.000  0.002  0.000  0.000  0.001  0.014
   22  0.000  0.001  0.000  0.001  0.000  0.001  0.000  0.002  0.001  0.006
   23  0.000  0.001  0.000  0.001  0.000  0.002  0.000  0.002  0.001  0.007
   24  0.018  0.001  0.003  0.000  0.000  0.001  0.001  0.000  0.000  0.024
   25  0.017  0.000  0.002  0.002  0.000  0.000  0.000  0.003  0.000  0.024
   26  0.033  0.000  0.004  0.002  0.000  0.000  0.000  0.003  0.000  0.043
   27  0.000  0.000  0.000  0.000  0.000  0.000  0.000  0.000  0.003  0.003
   28  0.000  0.000  0.001  0.000  0.000  0.000  0.000  0.000  0.000  0.001
   29  0.000  0.000  0.000  0.000  0.000  0.000  0.000  0.000  0.000  0.001
tot    0.392  0.041  0.023  0.045  0.001  0.025  0.004  0.029  0.058  0.617
 
band     8 # energy   -7.96007135 # occ.  2.00000000
 
ion      s     py     pz     px    dxy    dyz    dz2    dxz  x2-y2    tot
    1  0.002  0.000  0.000  0.001  0.000  0.000  0.000  0.001  0.003  0.007
    2  0.032  0.000  0.004  0.000  0.000  0.000  0.000  0.000  0.000  0.038
    3  0.008  0.000  0.001  0.002  0.000  0.000  0.000  0.002  0.002  0.015
    4  0.020  0.002  0.002  0.001  0.000  0.003  0.000  0.001  0.000  0.029
    5  0.000  0.002  0.000  0.000  0.000  0.003  0.000  0.000  0.002  0.008
    6  0.008  0.002  0.001  0.002  0.000  0.003  0.000  0.002  0.000  0.018
    7  0.012  0.003  0.001  0.001  0.000  0.004  0.000  0.001  0.000  0.022
    8  0.001  0.003  0.000  0.000  0.000  0.004  0.000  0.000  0.001  0.010
    9  0.004  0.003  0.000  0.002  0.000  0.004  0.000  0.002  0.000  0.015
   10  0.006  0.006  0.000  0.003  0.000  0.000  0.000  0.000  0.000  0.016
   11  0.029  0.006  0.000  0.001  0.000  0.000  0.000  0.000  0.000  0.037
   12  0.003  0.005  0.000  0.001  0.000  0.000  0.000  0.000  0.007  0.016
   13  0.026  0.000  0.000  0.003  0.000  0.000  0.000  0.000  0.008  0.037
   14  0.006  0.000  0.000  0.001  0.000  0.000  0.000  0.000  0.016  0.024
   15  0.092  0.000  0.000  0.001  0.000  0.000  0.000  0.000  0.001  0.094
   16  0.020  0.004  0.000  0.004  0.000  0.000  0.000  0.000  0.002  0.030
   17  0.047  0.004  0.000  0.002  0.000  0.000  0.000  0.000  0.000  0.053
   18  0.000  0.004  0.000  0.000  0.000  0.000  0.000  0.000  0.011  0.016
   19  0.003  0.000  0.000  0.001  0.000  0.000  0.000  0.001  0.002  0.007
   20  0.031  0.000  0.004  0.000  0.000  0.000  0.000  0.000  0.000  0.036
   21  0.007  0.000  0.001  0.001  0.000  0.000  0.000  0.002  0.001  0.013
   22  0.009  0.002  0.001  0.000  0.000  0.002  0.000  0.001  0.000  0.015
   23  0.000  0.001  0.000  0.000  0.000  0.002  0.000  0.000  0.002  0.005
   24  0.002  0.002  0.000  0.001  0.000  0.002  0.000  0.002  0.000  0.009
   25  0.013  0.002  0.002  0.000  0.000  0.003  0.001  0.001  0.000  0.021
   26  0.002  0.003  0.000  0.000  0.000  0.004  0.000  0.000  0.001  0.012
   27  0.003  0.002  0.000  0.002  0.000  0.003  0.000  0.002  0.000  0.012
   28  0.000  0.000  0.000  0.000  0.000  0.000  0.000  0.000  0.000  0.000
   29  0.000  0.000  0.000  0.000  0.000  0.000  0.000  0.000  0.000  0.000
tot    0.384  0.057  0.021  0.031  0.000  0.037  0.003  0.019  0.061  0.613
 
band     9 # energy   -7.91608604 # occ.  2.00000000
 
ion      s     py     pz     px    dxy    dyz    dz2    dxz  x2-y2    tot
    1  0.027  0.001  0.004  0.000  0.000  0.001  0.000  0.000  0.000  0.033
    2  0.000  0.001  0.000  0.003  0.000  0.001  0.000  0.003  0.001  0.010
    3  0.000  0.001  0.000  0.002  0.000  0.001  0.000  0.003  0.002  0.009
    4  0.014  0.002  0.002  0.000  0.000  0.003  0.000  0.000  0.001  0.021
    5  0.001  0.002  0.000  0.003  0.000  0.003  0.000  0.003  0.000  0.013
    6  0.003  0.002  0.000  0.002  0.000  0.003  0.000  0.003  0.001  0.013
    7  0.000  0.000  0.000  0.000  0.000  0.000  0.000  0.000  0.004  0.005
    8  0.020  0.000  0.002  0.003  0.000  0.000  0.000  0.004  0.000  0.029
    9  0.025  0.000  0.003  0.002  0.000  0.000  0.000  0.003  0.000  0.034
   10  0.055  0.000  0.000  0.004  0.000  0.000  0.000  0.000  0.000  0.059
   11  0.001  0.000  0.000  0.000  0.000  0.000  0.000  0.000  0.019  0.021
   12  0.042  0.000  0.000  0.005  0.000  0.000  0.000  0.000  0.001  0.048
   13  0.000  0.002  0.000  0.004  0.000  0.000  0.000  0.000  0.009  0.015
   14  0.078  0.002  0.000  0.000  0.000  0.000  0.000  0.000  0.001  0.081
   15  0.001  0.002  0.000  0.005  0.000  0.000  0.000  0.000  0.006  0.015
   16  0.005  0.004  0.000  0.004  0.000  0.000  0.000  0.000  0.004  0.018
   17  0.042  0.004  0.000  0.000  0.000  0.000  0.000  0.000  0.004  0.051
   18  0.002  0.004  0.000  0.005  0.000  0.000  0.000  0.000  0.002  0.013
   19  0.022  0.001  0.003  0.000  0.000  0.001  0.000  0.000  0.000  0.026
   20  0.001  0.001  0.000  0.002  0.000  0.001  0.000  0.002  0.001  0.007
   21  0.001  0.001  0.000  0.002  0.000  0.001  0.000  0.002  0.001  0.007
   22  0.018  0.001  0.002  0.000  0.000  0.002  0.000  0.000  0.000  0.023
   23  0.000  0.001  0.000  0.001  0.000  0.002  0.000  0.003  0.000  0.007
   24  0.000  0.001  0.000  0.001  0.000  0.002  0.000  0.002  0.001  0.008
   25  0.001  0.000  0.000  0.000  0.000  0.000  0.000  0.000  0.003  0.004
   26  0.006  0.000  0.001  0.003  0.000  0.000  0.000  0.004  0.000  0.015
   27  0.016  0.000  0.003  0.001  0.000  0.000  0.001  0.002  0.000  0.023
   28  0.000  0.000  0.000  0.000  0.000  0.000  0.000  0.000  0.000  0.000
   29  0.000  0.000  0.000  0.000  0.000  0.000  0.000  0.000  0.000  0.000
tot    0.380  0.034  0.021  0.052  0.000  0.022  0.003  0.034  0.062  0.609
 
band    10 # energy   -7.90899650 # occ.  2.00000000
 
ion      s     py     pz     px    dxy    dyz    dz2    dxz  x2-y2    tot
    1  0.002  0.001  0.000  0.002  0.000  0.001  0.002  0.002  0.000  0.011
    2  0.020  0.001  0.000  0.000  0.000  0.001  0.001  0.000  0.001  0.026
    3  0.000  0.001  0.001  0.001  0.000  0.001  0.003  0.001  0.000  0.008
    4  0.022  0.000  0.001  0.002  0.000  0.000  0.001  0.003  0.001  0.029
    5  0.058  0.000  0.003  0.000  0.000  0.000  0.001  0.000  0.000  0.063
    6  0.009  0.000  0.000  0.001  0.000  0.000  0.002  0.001  0.002  0.015
    7  0.002  0.001  0.000  0.002  0.000  0.001  0.002  0.003  0.000  0.011
    8  0.019  0.001  0.000  0.000  0.000  0.001  0.001  0.000  0.002  0.025
    9  0.000  0.001  0.001  0.001  0.000  0.001  0.003  0.001  0.000  0.008
   10  0.026  0.002  0.004  0.001  0.000  0.000  0.000  0.000  0.000  0.033
   11  0.006  0.002  0.003  0.003  0.000  0.000  0.000  0.000  0.000  0.015
   12  0.004  0.002  0.003  0.001  0.000  0.000  0.000  0.000  0.007  0.016
   13  0.024  0.002  0.004  0.002  0.000  0.000  0.000  0.000  0.001  0.032
   14  0.005  0.002  0.003  0.004  0.000  0.000  0.000  0.000  0.000  0.014
   15  0.007  0.002  0.003  0.000  0.000  0.000  0.000  0.000  0.006  0.019
   16  0.000  0.000  0.003  0.002  0.000  0.000  0.000  0.000  0.010  0.015
   17  0.008  0.000  0.003  0.004  0.000  0.000  0.000  0.000  0.003  0.017
   18  0.057  0.000  0.002  0.000  0.000  0.000  0.000  0.000  0.000  0.060
   19  0.017  0.001  0.000  0.001  0.000  0.001  0.001  0.002  0.000  0.024
   20  0.003  0.001  0.000  0.000  0.000  0.001  0.002  0.000  0.001  0.009
   21  0.035  0.000  0.002  0.000  0.000  0.001  0.001  0.001  0.000  0.040
   22  0.002  0.000  0.000  0.001  0.000  0.000  0.002  0.002  0.001  0.008
   23  0.000  0.000  0.000  0.000  0.000  0.000  0.005  0.000  0.000  0.007
   24  0.008  0.000  0.000  0.001  0.000  0.000  0.002  0.001  0.001  0.013
   25  0.021  0.001  0.001  0.001  0.000  0.001  0.001  0.002  0.000  0.028
   26  0.003  0.001  0.000  0.000  0.000  0.001  0.002  0.000  0.001  0.009
   27  0.030  0.001  0.001  0.001  0.000  0.001  0.001  0.001  0.000  0.035
   28  0.000  0.000  0.000  0.000  0.000  0.000  0.000  0.000  0.000  0.000
   29  0.000  0.000  0.000  0.000  0.000  0.000  0.000  0.000  0.000  0.001
tot    0.389  0.020  0.039  0.032  0.000  0.014  0.035  0.020  0.038  0.588
 
band    11 # energy   -7.71963725 # occ.  2.00000000
 
ion      s     py     pz     px    dxy    dyz    dz2    dxz  x2-y2    tot
    1  0.029  0.001  0.001  0.001  0.000  0.002  0.002  0.001  0.000  0.036
    2  0.005  0.001  0.000  0.000  0.000  0.001  0.003  0.000  0.001  0.012
    3  0.029  0.001  0.001  0.001  0.000  0.002  0.002  0.001  0.000  0.036
    4  0.002  0.000  0.000  0.001  0.000  0.000  0.003  0.001  0.002  0.009
    5  0.001  0.000  0.002  0.000  0.000  0.000  0.003  0.000  0.000  0.006
    6  0.003  0.000  0.000  0.001  0.000  0.000  0.003  0.001  0.002  0.010
    7  0.029  0.001  0.001  0.001  0.000  0.002  0.002  0.001  0.000  0.036
    8  0.005  0.001  0.000  0.000  0.000  0.001  0.003  0.000  0.001  0.013
    9  0.030  0.001  0.001  0.001  0.000  0.002  0.002  0.001  0.000  0.037
   10  0.011  0.001  0.002  0.001  0.000  0.001  0.000  0.000  0.000  0.017
   11  0.013  0.001  0.003  0.001  0.000  0.001  0.000  0.000  0.000  0.019
   12  0.000  0.002  0.004  0.000  0.000  0.000  0.000  0.000  0.005  0.012
   13  0.012  0.001  0.003  0.001  0.000  0.001  0.000  0.000  0.000  0.019
   14  0.011  0.001  0.002  0.001  0.000  0.001  0.000  0.001  0.000  0.017
   15  0.000  0.002  0.004  0.000  0.000  0.000  0.000  0.000  0.005  0.012
   16  0.002  0.000  0.005  0.001  0.000  0.000  0.000  0.000  0.006  0.015
   17  0.002  0.000  0.005  0.002  0.000  0.000  0.000  0.000  0.006  0.015
   18  0.039  0.000  0.006  0.000  0.000  0.000  0.000  0.000  0.000  0.045
   19  0.004  0.000  0.000  0.000  0.000  0.001  0.003  0.001  0.000  0.010
   20  0.016  0.000  0.001  0.000  0.000  0.001  0.001  0.000  0.000  0.020
   21  0.004  0.001  0.000  0.000  0.000  0.001  0.003  0.001  0.000  0.011
   22  0.018  0.000  0.001  0.000  0.000  0.000  0.001  0.001  0.000  0.021
   23  0.006  0.000  0.012  0.000  0.000  0.000  0.025  0.000  0.000  0.043
   24  0.019  0.000  0.001  0.000  0.000  0.000  0.001  0.001  0.000  0.022
   25  0.006  0.001  0.000  0.000  0.000  0.002  0.003  0.001  0.000  0.013
   26  0.015  0.000  0.000  0.000  0.000  0.001  0.002  0.000  0.000  0.020
   27  0.005  0.001  0.000  0.000  0.000  0.002  0.003  0.001  0.000  0.011
   28  0.000  0.001  0.024  0.000  0.000  0.000  0.000  0.000  0.000  0.026
   29  0.016  0.001  0.032  0.000  0.000  0.000  0.000  0.000  0.000  0.050
tot    0.333  0.021  0.110  0.013  0.002  0.021  0.069  0.014  0.030  0.612
 
band    12 # energy   -6.64750966 # occ.  2.00000000
 
ion      s     py     pz     px    dxy    dyz    dz2    dxz  x2-y2    tot
    1  0.001  0.000  0.001  0.000  0.000  0.001  0.014  0.000  0.000  0.017
    2  0.007  0.000  0.000  0.000  0.001  0.000  0.011  0.000  0.000  0.021
    3  0.002  0.000  0.001  0.000  0.002  0.000  0.015  0.000  0.000  0.020
    4  0.001  0.000  0.002  0.000  0.000  0.000  0.019  0.000  0.001  0.023
    5  0.009  0.000  0.000  0.000  0.000  0.000  0.013  0.000  0.000  0.023
    6  0.007  0.000  0.000  0.000  0.001  0.000  0.012  0.000  0.000  0.021
    7  0.005  0.000  0.000  0.000  0.000  0.000  0.007  0.000  0.000  0.013
    8  0.001  0.000  0.002  0.000  0.000  0.000  0.023  0.000  0.000  0.027
    9  0.002  0.000  0.001  0.000  0.000  0.000  0.014  0.001  0.000  0.018
   10  0.005  0.000  0.000  0.001  0.000  0.000  0.029  0.001  0.000  0.037
   11  0.000  0.000  0.000  0.000  0.000  0.001  0.047  0.000  0.000  0.049
   12  0.011  0.000  0.000  0.000  0.002  0.000  0.024  0.000  0.000  0.039
   13  0.006  0.000  0.000  0.000  0.010  0.001  0.034  0.001  0.000  0.051
   14  0.005  0.001  0.000  0.000  0.000  0.001  0.034  0.000  0.000  0.042
   15  0.001  0.000  0.000  0.000  0.005  0.000  0.040  0.000  0.000  0.047
   16  0.001  0.000  0.000  0.000  0.010  0.000  0.055  0.001  0.000  0.067
   17  0.010  0.001  0.000  0.000  0.002  0.000  0.029  0.000  0.000  0.042
   18  0.002  0.001  0.000  0.000  0.001  0.000  0.035  0.000  0.000  0.039
   19  0.006  0.001  0.000  0.000  0.000  0.001  0.013  0.000  0.000  0.021
   20  0.005  0.000  0.000  0.000  0.002  0.000  0.009  0.000  0.000  0.016
   21  0.002  0.000  0.001  0.000  0.002  0.000  0.013  0.000  0.000  0.018
   22  0.001  0.000  0.001  0.000  0.000  0.000  0.015  0.000  0.001  0.018
   23  0.001  0.000  0.000  0.000  0.001  0.000  0.017  0.000  0.000  0.019
   24  0.004  0.000  0.000  0.000  0.001  0.000  0.008  0.000  0.000  0.014
   25  0.014  0.000  0.000  0.000  0.001  0.000  0.008  0.000  0.000  0.023
   26  0.001  0.000  0.002  0.001  0.001  0.000  0.026  0.001  0.000  0.032
   27  0.003  0.000  0.001  0.000  0.000  0.000  0.013  0.000  0.000  0.017
   28  0.000  0.000  0.000  0.000  0.000  0.000  0.000  0.000  0.000  0.000
   29  0.000  0.000  0.000  0.000  0.000  0.000  0.000  0.000  0.000  0.001
tot    0.112  0.005  0.014  0.005  0.044  0.007  0.576  0.008  0.004  0.775
 
band    13 # energy   -6.59164045 # occ.  2.00000000
 
ion      s     py     pz     px    dxy    dyz    dz2    dxz  x2-y2    tot
    1  0.002  0.000  0.000  0.001  0.007  0.000  0.000  0.000  0.006  0.016
    2  0.000  0.000  0.000  0.000  0.002  0.002  0.001  0.000  0.014  0.019
    3  0.025  0.002  0.001  0.000  0.002  0.002  0.001  0.000  0.001  0.033
    4  0.000  0.001  0.000  0.002  0.004  0.000  0.000  0.001  0.003  0.010
    5  0.005  0.000  0.001  0.001  0.001  0.001  0.001  0.000  0.008  0.017
    6  0.026  0.002  0.002  0.000  0.001  0.001  0.000  0.000  0.002  0.034
    7  0.012  0.000  0.001  0.000  0.001  0.000  0.000  0.002  0.004  0.020
    8  0.008  0.000  0.000  0.000  0.000  0.000  0.007  0.000  0.001  0.016
    9  0.003  0.000  0.001  0.000  0.000  0.000  0.002  0.001  0.026  0.034
   10  0.009  0.000  0.000  0.001  0.000  0.001  0.002  0.003  0.000  0.015