unknown system                          
           1
     7.657966    0.000000    0.000000
     0.000000    7.657966    0.000000
     0.000000    0.000000   29.610000
   Cu   O    C 
  27   1   1
Direct configuration=     1
   0.00000000  0.00000000  0.43904086
   0.33333333  0.00000000  0.43904086
   0.66666667  0.00000000  0.43904086
   0.00000000  0.33333333  0.43904086
   0.33333333  0.33333333  0.43904086
   0.66666667  0.33333333  0.43904086
   0.00000000  0.66666667  0.43904086
   0.33333333  0.66666667  0.43904086
   0.66666667  0.66666667  0.43904086
   0.16666667  0.16666667  0.50000000
   0.50000000  0.16666667  0.50000000
   0.83333333  0.16666667  0.50000000
   0.16666667  0.50000000  0.50000000
   0.50000000  0.50000000  0.50000000
   0.83333333  0.50000000  0.50000000
   0.16666667  0.83333333  0.50000000
   0.50000000  0.83333333  0.50000000
   0.83333333  0.83333333  0.50000000
   0.00000000  0.00000000  0.56095914
   0.33333333  0.00000000  0.56095914
   0.66666667  0.00000000  0.56095914
   0.00000000  0.33333333  0.56095914
   0.33333333  0.33333333  0.56095914
   0.66666667  0.33333333  0.56095914
   0.00000000  0.66666667  0.56095914
   0.33333333  0.66666667  0.56095914
   0.66666667  0.66666667  0.56095914
   0.33333333  0.33333333  0.66819216
   0.33333333  0.33333333  0.62934245
Direct configuration=     2
   0.00000000  0.00000000  0.43904086
   0.33333333  0.00000000  0.43904086
   0.66666667  0.00000000  0.43904086
   0.00000000  0.33333333  0.43904086
   0.33333333  0.33333333  0.43904086
   0.66666667  0.33333333  0.43904086
   0.00000000  0.66666667  0.43904086
   0.33333333  0.66666667  0.43904086
   0.66666667  0.66666667  0.43904086
   0.16666667  0.16666667  0.50000000
   0.50000000  0.16666667  0.50000000
   0.83333333  0.16666667  0.50000000
   0.16666667  0.50000000  0.50000000
   0.50000000  0.50000000  0.50000000
   0.83333333  0.50000000  0.50000000
   0.16666667  0.83333333  0.50000000
   0.50000000  0.83333333  0.50000000
   0.83333333  0.83333333  0.50000000
   0.99996380  0.99993455  0.56103531
   0.33317753  0.99997644  0.56091617
   0.66668938  0.99976678  0.56102611
   0.99991706  0.33320751  0.56095839
   0.33332202  0.33342864  0.56092940
   0.66662313  0.33349407  0.56096765
   0.00010677  0.66656766  0.56090989
   0.33336321  0.66681585  0.56098776
   0.66659068  0.66649233  0.56093565
   0.33323622  0.33338022  0.66807263
   0.33342036  0.33309455  0.62932904
Direct configuration=     3
   0.00000000  0.00000000  0.43904086
   0.33333333  0.00000000  0.43904086
   0.66666667  0.00000000  0.43904086
   0.00000000  0.33333333  0.43904086
   0.33333333  0.33333333  0.43904086
   0.66666667  0.33333333  0.43904086
   0.00000000  0.66666667  0.43904086
   0.33333333  0.66666667  0.43904086
   0.66666667  0.66666667  0.43904086
   0.16666667  0.16666667  0.50000000
   0.50000000  0.16666667  0.50000000
   0.83333333  0.16666667  0.50000000
   0.16666667  0.50000000  0.50000000
   0.50000000  0.50000000  0.50000000
   0.83333333  0.50000000  0.50000000
   0.16666667  0.83333333  0.50000000
   0.50000000  0.83333333  0.50000000
   0.83333333  0.83333333  0.50000000
   0.99992761  0.99986911  0.56111159
   0.33302177  0.99995225  0.56087335
   0.66671209  0.99953365  0.56109318
   0.99983349  0.33308171  0.56095776
   0.33331070  0.33352389  0.56090137
   0.66658029  0.33365469  0.56097629
   0.00021349  0.66646871  0.56086078
   0.33339305  0.66696563  0.56101650
   0.66651475  0.66631809  0.56091228
   0.33313909  0.33342716  0.66795947
   0.33350740  0.33285577  0.62930115
Direct configuration=     4
   0.00000000  0.00000000  0.43904086
   0.33333333  0.00000000  0.43904086
   0.66666667  0.00000000  0.43904086
   0.00000000  0.33333333  0.43904086
   0.33333333  0.33333333  0.43904086
   0.66666667  0.33333333  0.43904086
   0.00000000  0.66666667  0.43904086
   0.33333333  0.66666667  0.43904086
   0.66666667  0.66666667  0.43904086
   0.16666667  0.16666667  0.50000000
   0.50000000  0.16666667  0.50000000
   0.83333333  0.16666667  0.50000000
   0.16666667  0.50000000  0.50000000
   0.50000000  0.50000000  0.50000000
   0.83333333  0.50000000  0.50000000
   0.16666667  0.83333333  0.50000000
   0.50000000  0.83333333  0.50000000
   0.83333333  0.83333333  0.50000000
   0.99989141  0.99980367  0.56118799
   0.33286603  0.99992745  0.56083065
   0.66673479  0.99930058  0.56116036
   0.99974930  0.33295591  0.56095726
   0.33329934  0.33361907  0.56087501
   0.66653813  0.33381519  0.56098504
   0.00032017  0.66636980  0.56081181
   0.33342288  0.66711605  0.56104535
   0.66643889  0.66614391  0.56088905
   0.33304190  0.33347417  0.66785405
   0.33359443  0.33261703  0.62925685
Direct configuration=     5
   0.00000000  0.00000000  0.43904086
   0.33333333  0.00000000  0.43904086
   0.66666667  0.00000000  0.43904086
   0.00000000  0.33333333  0.43904086
   0.33333333  0.33333333  0.43904086
   0.66666667  0.33333333  0.43904086
   0.00000000  0.66666667  0.43904086
   0.33333333  0.66666667  0.43904086
   0.66666667  0.66666667  0.43904086
   0.16666667  0.16666667  0.50000000
   0.50000000  0.16666667  0.50000000
   0.83333333  0.16666667  0.50000000
   0.16666667  0.50000000  0.50000000
   0.50000000  0.50000000  0.50000000
   0.83333333  0.50000000  0.50000000
   0.16666667  0.83333333  0.50000000
   0.50000000  0.83333333  0.50000000
   0.83333333  0.83333333  0.50000000
   0.99985517  0.99973816  0.56126453
   0.33271024  0.99990203  0.56078807
   0.66675748  0.99906746  0.56122768
   0.99966443  0.33283003  0.56095688
   0.33328795  0.33371426  0.56085033
   0.66649662  0.33397560  0.56099391
   0.00042687  0.66627087  0.56076295
   0.33345271  0.66726717  0.56107433
   0.66636306  0.66596972  0.56086592
   0.33294465  0.33352129  0.66775746
   0.33368150  0.33237826  0.62919463
Direct configuration=     6
   0.00000000  0.00000000  0.43904086
   0.33333333  0.00000000  0.43904086
   0.66666667  0.00000000  0.43904086
   0.00000000  0.33333333  0.43904086
   0.33333333  0.33333333  0.43904086
   0.66666667  0.33333333  0.43904086
   0.00000000  0.66666667  0.43904086
   0.33333333  0.66666667  0.43904086
   0.66666667  0.66666667  0.43904086
   0.16666667  0.16666667  0.50000000
   0.50000000  0.16666667  0.50000000
   0.83333333  0.16666667  0.50000000
   0.16666667  0.50000000  0.50000000
   0.50000000  0.50000000  0.50000000
   0.83333333  0.50000000  0.50000000
   0.16666667  0.83333333  0.50000000
   0.50000000  0.83333333  0.50000000
   0.83333333  0.83333333  0.50000000
   0.99981889  0.99967258  0.56134125
   0.33255437  0.99987600  0.56074559
   0.66678014  0.99883426  0.56129515
   0.99957885  0.33270404  0.56095663
   0.33327650  0.33380948  0.56082733
   0.66645578  0.33413595  0.56100291
   0.00053361  0.66617189  0.56071419
   0.33348254  0.66741903  0.56110344
   0.66628727  0.66579549  0.56084291
   0.33284727  0.33356856  0.66767024
   0.33376862  0.33213940  0.62911371
Direct configuration=     7
   0.00000000  0.00000000  0.43904086
   0.33333333  0.00000000  0.43904086
   0.66666667  0.00000000  0.43904086
   0.00000000  0.33333333  0.43904086
   0.33333333  0.33333333  0.43904086
   0.66666667  0.33333333  0.43904086
   0.00000000  0.66666667  0.43904086
   0.33333333  0.66666667  0.43904086
   0.66666667  0.66666667  0.43904086
   0.16666667  0.16666667  0.50000000
   0.50000000  0.16666667  0.50000000
   0.83333333  0.16666667  0.50000000
   0.16666667  0.50000000  0.50000000
   0.50000000  0.50000000  0.50000000
   0.83333333  0.50000000  0.50000000
   0.16666667  0.83333333  0.50000000
   0.50000000  0.83333333  0.50000000
   0.83333333  0.83333333  0.50000000
   0.99978254  0.99960691  0.56141813
   0.33239843  0.99984937  0.56070322
   0.66680278  0.99860096  0.56136279
   0.99949257  0.33257794  0.56095650
   0.33326500  0.33390471  0.56080601
   0.66641559  0.33429617  0.56101204
   0.00064037  0.66607287  0.56066553
   0.33351238  0.66757162  0.56113270
   0.66621153  0.66562122  0.56082001
   0.33274968  0.33361606  0.66759245
   0.33385582  0.33190042  0.62901398
Direct configuration=     8
   0.00000000  0.00000000  0.43904086
   0.33333333  0.00000000  0.43904086
   0.66666667  0.00000000  0.43904086
   0.00000000  0.33333333  0.43904086
   0.33333333  0.33333333  0.43904086
   0.66666667  0.33333333  0.43904086
   0.00000000  0.66666667  0.43904086
   0.33333333  0.66666667  0.43904086
   0.66666667  0.66666667  0.43904086
   0.16666667  0.16666667  0.50000000
   0.50000000  0.16666667  0.50000000
   0.83333333  0.16666667  0.50000000
   0.16666667  0.50000000  0.50000000
   0.50000000  0.50000000  0.50000000
   0.83333333  0.50000000  0.50000000
   0.16666667  0.83333333  0.50000000
   0.50000000  0.83333333  0.50000000
   0.83333333  0.83333333  0.50000000
   0.99974611  0.99954111  0.56149518
   0.33224241  0.99982217  0.56066094
   0.66682537  0.99836757  0.56143058
   0.99940558  0.33245170  0.56095649
   0.33325344  0.33399997  0.56078636
   0.66637605  0.33445626  0.56102129
   0.00074716  0.66597379  0.56061697
   0.33354223  0.66772496  0.56116209
   0.66613586  0.66544692  0.56079722
   0.33265187  0.33366380  0.66752380
   0.33394312  0.33166132  0.62889589
Direct configuration=     9
   0.00000000  0.00000000  0.43904086
   0.33333333  0.00000000  0.43904086
   0.66666667  0.00000000  0.43904086
   0.00000000  0.33333333  0.43904086
   0.33333333  0.33333333  0.43904086
   0.66666667  0.33333333  0.43904086
   0.00000000  0.66666667  0.43904086
   0.33333333  0.66666667  0.43904086
   0.66666667  0.66666667  0.43904086
   0.16666667  0.16666667  0.50000000
   0.50000000  0.16666667  0.50000000
   0.83333333  0.16666667  0.50000000
   0.16666667  0.50000000  0.50000000
   0.50000000  0.50000000  0.50000000
   0.83333333  0.50000000  0.50000000
   0.16666667  0.83333333  0.50000000
   0.50000000  0.83333333  0.50000000
   0.83333333  0.83333333  0.50000000
   0.99970960  0.99947519  0.56157241
   0.33208630  0.99979440  0.56061876
   0.66684791  0.99813404  0.56149854
   0.99931787  0.33232531  0.56095661
   0.33324181  0.33409526  0.56076836
   0.66633716  0.33461619  0.56103067
   0.00085398  0.66587464  0.56056850
   0.33357211  0.66787905  0.56119163
   0.66606025  0.66527256  0.56077454
   0.33255390  0.33371172  0.66746345
   0.33403047  0.33142215  0.62876063
Direct configuration=    10
   0.00000000  0.00000000  0.43904086
   0.33333333  0.00000000  0.43904086
   0.66666667  0.00000000  0.43904086
   0.00000000  0.33333333  0.43904086
   0.33333333  0.33333333  0.43904086
   0.66666667  0.33333333  0.43904086
   0.00000000  0.66666667  0.43904086
   0.33333333  0.66666667  0.43904086
   0.66666667  0.66666667  0.43904086
   0.16666667  0.16666667  0.50000000
   0.50000000  0.16666667  0.50000000
   0.83333333  0.16666667  0.50000000
   0.16666667  0.50000000  0.50000000
   0.50000000  0.50000000  0.50000000
   0.83333333  0.50000000  0.50000000
   0.16666667  0.83333333  0.50000000
   0.50000000  0.83333333  0.50000000
   0.83333333  0.83333333  0.50000000
   0.99967299  0.99940913  0.56164981
   0.33193012  0.99976608  0.56057667
   0.66687039  0.99790042  0.56156665
   0.99922945  0.33219877  0.56095685
   0.33323010  0.33419058  0.56075202
   0.66629891  0.33477593  0.56104018
   0.00096083  0.66577543  0.56052013
   0.33360200  0.66803388  0.56122132
   0.66598474  0.66509818  0.56075197
   0.33245575  0.33375977  0.66741010
   0.33411777  0.33118310  0.62860988
Direct configuration=    11
   0.00000000  0.00000000  0.43904086
   0.33333333  0.00000000  0.43904086
   0.66666667  0.00000000  0.43904086
   0.00000000  0.33333333  0.43904086
   0.33333333  0.33333333  0.43904086
   0.66666667  0.33333333  0.43904086
   0.00000000  0.66666667  0.43904086
   0.33333333  0.66666667  0.43904086
   0.66666667  0.66666667  0.43904086
   0.16666667  0.16666667  0.50000000
   0.50000000  0.16666667  0.50000000
   0.83333333  0.16666667  0.50000000
   0.16666667  0.50000000  0.50000000
   0.50000000  0.50000000  0.50000000
   0.83333333  0.50000000  0.50000000
   0.16666667  0.83333333  0.50000000
   0.50000000  0.83333333  0.50000000
   0.83333333  0.83333333  0.50000000
   0.99963630  0.99934295  0.56172733
   0.33177396  0.99973724  0.56053471
   0.66689278  0.99766683  0.56163488
   0.99914035  0.33207214  0.56095722
   0.33321831  0.33428588  0.56073732
   0.66626133  0.33493536  0.56104982
   0.00106765  0.66567619  0.56047188
   0.33363190  0.66818937  0.56125114
   0.66590936  0.66492388  0.56072952
   0.33235751  0.33380788  0.66736223
   0.33420488  0.33094444  0.62844580
Direct configuration=    12
   0.00000000  0.00000000  0.43904086
   0.33333333  0.00000000  0.43904086
   0.66666667  0.00000000  0.43904086
   0.00000000  0.33333333  0.43904086
   0.33333333  0.33333333  0.43904086
   0.66666667  0.33333333  0.43904086
   0.00000000  0.66666667  0.43904086
   0.33333333  0.66666667  0.43904086
   0.66666667  0.66666667  0.43904086
   0.16666667  0.16666667  0.50000000
   0.50000000  0.16666667  0.50000000
   0.83333333  0.16666667  0.50000000
   0.16666667  0.50000000  0.50000000
   0.50000000  0.50000000  0.50000000
   0.83333333  0.50000000  0.50000000
   0.16666667  0.83333333  0.50000000
   0.50000000  0.83333333  0.50000000
   0.83333333  0.83333333  0.50000000
   0.99959953  0.99927668  0.56180491
   0.33161793  0.99970793  0.56049291
   0.66691506  0.99743343  0.56170319
   0.99905066  0.33194550  0.56095772
   0.33320645  0.33438109  0.56072429
   0.66622443  0.33509432  0.56105958
   0.00117434  0.66557701  0.56042379
   0.33366179  0.66834539  0.56128107
   0.66583420  0.66474978  0.56070722
   0.33225934  0.33385586  0.66731804
   0.33429163  0.33070653  0.62827090
Direct configuration=    13
   0.00000000  0.00000000  0.43904086
   0.33333333  0.00000000  0.43904086
   0.66666667  0.00000000  0.43904086
   0.00000000  0.33333333  0.43904086
   0.33333333  0.33333333  0.43904086
   0.66666667  0.33333333  0.43904086
   0.00000000  0.66666667  0.43904086
   0.33333333  0.66666667  0.43904086
   0.66666667  0.66666667  0.43904086
   0.16666667  0.16666667  0.50000000
   0.50000000  0.16666667  0.50000000
   0.83333333  0.16666667  0.50000000
   0.16666667  0.50000000  0.50000000
   0.50000000  0.50000000  0.50000000
   0.83333333  0.50000000  0.50000000
   0.16666667  0.83333333  0.50000000
   0.50000000  0.83333333  0.50000000
   0.83333333  0.83333333  0.50000000
   0.99956270  0.99921035  0.56188250
   0.33146216  0.99967818  0.56045129
   0.66693721  0.99720039  0.56177151
   0.99896043  0.33181894  0.56095834
   0.33319452  0.33447614  0.56071293
   0.66618825  0.33525266  0.56106945
   0.00128083  0.66547794  0.56037589
   0.33369165  0.66850183  0.56131109
   0.66575933  0.66457603  0.56068507
   0.33216141  0.33390347  0.66727552
   0.33437778  0.33046983  0.62808812
Direct configuration=    14
   0.00000000  0.00000000  0.43904086
   0.33333333  0.00000000  0.43904086
   0.66666667  0.00000000  0.43904086
   0.00000000  0.33333333  0.43904086
   0.33333333  0.33333333  0.43904086
   0.66666667  0.33333333  0.43904086
   0.00000000  0.66666667  0.43904086
   0.33333333  0.66666667  0.43904086
   0.66666667  0.66666667  0.43904086
   0.16666667  0.16666667  0.50000000
   0.50000000  0.16666667  0.50000000
   0.83333333  0.16666667  0.50000000
   0.16666667  0.50000000  0.50000000
   0.50000000  0.50000000  0.50000000
   0.83333333  0.50000000  0.50000000
   0.16666667  0.83333333  0.50000000
   0.50000000  0.83333333  0.50000000
   0.83333333  0.83333333  0.50000000
   0.99952585  0.99914402  0.56196002
   0.33130680  0.99964803  0.56040989
   0.66695919  0.99696794  0.56183978
   0.99886974  0.33169256  0.56095909
   0.33318252  0.33457095  0.56070321
   0.66615282  0.33541021  0.56107944
   0.00138701  0.66537909  0.56032824
   0.33372146  0.66865855  0.56134118
   0.66568483  0.66440280  0.56066310
   0.33206392  0.33395049  0.66723259
   0.33446304  0.33023489  0.62790046
Direct configuration=    15
   0.00000000  0.00000000  0.43904086
   0.33333333  0.00000000  0.43904086
   0.66666667  0.00000000  0.43904086
   0.00000000  0.33333333  0.43904086
   0.33333333  0.33333333  0.43904086
   0.66666667  0.33333333  0.43904086
   0.00000000  0.66666667  0.43904086
   0.33333333  0.66666667  0.43904086
   0.66666667  0.66666667  0.43904086
   0.16666667  0.16666667  0.50000000
   0.50000000  0.16666667  0.50000000
   0.83333333  0.16666667  0.50000000
   0.16666667  0.50000000  0.50000000
   0.50000000  0.50000000  0.50000000
   0.83333333  0.50000000  0.50000000
   0.16666667  0.83333333  0.50000000
   0.50000000  0.83333333  0.50000000
   0.83333333  0.83333333  0.50000000
   0.99948898  0.99907774  0.56203737
   0.33115202  0.99961755  0.56036877
   0.66698097  0.99673631  0.56190792
   0.99877871  0.33156650  0.56095998
   0.33317046  0.33466541  0.56069513
   0.66611815  0.33556678  0.56108952
   0.00149277  0.66528054  0.56028087
   0.33375118  0.66881535  0.56137131
   0.66561078  0.66423027  0.56064134
   0.33196714  0.33399661  0.66718727
   0.33454711  0.33000231  0.62771098
Direct configuration=    16
   0.00000000  0.00000000  0.43904086
   0.33333333  0.00000000  0.43904086
   0.66666667  0.00000000  0.43904086
   0.00000000  0.33333333  0.43904086
   0.33333333  0.33333333  0.43904086
   0.66666667  0.33333333  0.43904086
   0.00000000  0.66666667  0.43904086
   0.33333333  0.66666667  0.43904086
   0.66666667  0.66666667  0.43904086
   0.16666667  0.16666667  0.50000000
   0.50000000  0.16666667  0.50000000
   0.83333333  0.16666667  0.50000000
   0.16666667  0.50000000  0.50000000
   0.50000000  0.50000000  0.50000000
   0.83333333  0.50000000  0.50000000
   0.16666667  0.83333333  0.50000000
   0.50000000  0.83333333  0.50000000
   0.83333333  0.83333333  0.50000000
   0.99945214  0.99901154  0.56211449
   0.33099798  0.99958679  0.56032797
   0.66700253  0.99650574  0.56197587
   0.99868744  0.33144087  0.56096099
   0.33315834  0.33475944  0.56068866
   0.66608427  0.33572218  0.56109970
   0.00159799  0.66518240  0.56023383
   0.33378079  0.66897206  0.56140144
   0.66553729  0.66405862  0.56061980
   0.33187130  0.33404152  0.66713758
   0.33462967  0.32977269  0.62752256
Direct configuration=    17
   0.00000000  0.00000000  0.43904086
   0.33333333  0.00000000  0.43904086
   0.66666667  0.00000000  0.43904086
   0.00000000  0.33333333  0.43904086
   0.33333333  0.33333333  0.43904086
   0.66666667  0.33333333  0.43904086
   0.00000000  0.66666667  0.43904086
   0.33333333  0.66666667  0.43904086
   0.66666667  0.66666667  0.43904086
   0.16666667  0.16666667  0.50000000
   0.50000000  0.16666667  0.50000000
   0.83333333  0.16666667  0.50000000
   0.16666667  0.50000000  0.50000000
   0.50000000  0.50000000  0.50000000
   0.83333333  0.50000000  0.50000000
   0.16666667  0.83333333  0.50000000
   0.50000000  0.83333333  0.50000000
   0.83333333  0.83333333  0.50000000
   0.99941533  0.99894549  0.56219131
   0.33084482  0.99955579  0.56028751
   0.66702383  0.99627641  0.56204357
   0.99859600  0.33131578  0.56096213
   0.33314618  0.33485294  0.56068380
   0.66605123  0.33587625  0.56110997
   0.00170258  0.66508474  0.56018718
   0.33381027  0.66912857  0.56143156
   0.66546442  0.66388803  0.56059850
   0.33177661  0.33408495  0.66708162
   0.33471036  0.32954667  0.62733800
Direct configuration=    18
   0.00000000  0.00000000  0.43904086
   0.33333333  0.00000000  0.43904086
   0.66666667  0.00000000  0.43904086
   0.00000000  0.33333333  0.43904086
   0.33333333  0.33333333  0.43904086
   0.66666667  0.33333333  0.43904086
   0.00000000  0.66666667  0.43904086
   0.33333333  0.66666667  0.43904086
   0.66666667  0.66666667  0.43904086
   0.16666667  0.16666667  0.50000000
   0.50000000  0.16666667  0.50000000
   0.83333333  0.16666667  0.50000000
   0.16666667  0.50000000  0.50000000
   0.50000000  0.50000000  0.50000000
   0.83333333  0.50000000  0.50000000
   0.16666667  0.83333333  0.50000000
   0.50000000  0.83333333  0.50000000
   0.83333333  0.83333333  0.50000000
   0.99937857  0.99887959  0.56226777
   0.33069265  0.99952456  0.56024744
   0.66704486  0.99604847  0.56211097
   0.99850443  0.33119130  0.56096340
   0.33313397  0.33494586  0.56068053
   0.66601903  0.33602885  0.56112031
   0.00180646  0.66498763  0.56014092
   0.33383960  0.66928477  0.56146165
   0.66539225  0.66371860  0.56057746
   0.33168334  0.33412659  0.66701767
   0.33478888  0.32932481  0.62715984
Direct configuration=    19
   0.00000000  0.00000000  0.43904086
   0.33333333  0.00000000  0.43904086
   0.66666667  0.00000000  0.43904086
   0.00000000  0.33333333  0.43904086
   0.33333333  0.33333333  0.43904086
   0.66666667  0.33333333  0.43904086
   0.00000000  0.66666667  0.43904086
   0.33333333  0.66666667  0.43904086
   0.66666667  0.66666667  0.43904086
   0.16666667  0.16666667  0.50000000
   0.50000000  0.16666667  0.50000000
   0.83333333  0.16666667  0.50000000
   0.16666667  0.50000000  0.50000000
   0.50000000  0.50000000  0.50000000
   0.83333333  0.50000000  0.50000000
   0.16666667  0.83333333  0.50000000
   0.50000000  0.83333333  0.50000000
   0.83333333  0.83333333  0.50000000
   0.99934186  0.99881387  0.56234383
   0.33054156  0.99949316  0.56020777
   0.66706559  0.99582206  0.56217804
   0.99841280  0.33106748  0.56096481
   0.33312170  0.33503815  0.56067888
   0.66598770  0.33617986  0.56113074
   0.00190958  0.66489110  0.56009511
   0.33386876  0.66944057  0.56149169
   0.66532081  0.66355043  0.56055669
   0.33159172  0.33416613  0.66694428
   0.33486499  0.32910761  0.62699018
Direct configuration=    20
   0.00000000  0.00000000  0.43904086
   0.33333333  0.00000000  0.43904086
   0.66666667  0.00000000  0.43904086
   0.00000000  0.33333333  0.43904086
   0.33333333  0.33333333  0.43904086
   0.66666667  0.33333333  0.43904086
   0.00000000  0.66666667  0.43904086
   0.33333333  0.66666667  0.43904086
   0.66666667  0.66666667  0.43904086
   0.16666667  0.16666667  0.50000000
   0.50000000  0.16666667  0.50000000
   0.83333333  0.16666667  0.50000000
   0.16666667  0.50000000  0.50000000
   0.50000000  0.50000000  0.50000000
   0.83333333  0.50000000  0.50000000
   0.16666667  0.83333333  0.50000000
   0.50000000  0.83333333  0.50000000
   0.83333333  0.83333333  0.50000000
   0.99930520  0.99874833  0.56241948
   0.33039160  0.99946162  0.56016852
   0.66708601  0.99559722  0.56224475
   0.99832112  0.33094436  0.56096634
   0.33310939  0.33512979  0.56067881
   0.66595724  0.33632922  0.56114124
   0.00201189  0.66479519  0.56004974
   0.33389776  0.66959592  0.56152168
   0.66525016  0.66338359  0.56053620
   0.33150190  0.33420330  0.66686027
   0.33493843  0.32889544  0.62683082
Direct configuration=    21
   0.00000000  0.00000000  0.43904086
   0.33333333  0.00000000  0.43904086
   0.66666667  0.00000000  0.43904086
   0.00000000  0.33333333  0.43904086
   0.33333333  0.33333333  0.43904086
   0.66666667  0.33333333  0.43904086
   0.00000000  0.66666667  0.43904086
   0.33333333  0.66666667  0.43904086
   0.66666667  0.66666667  0.43904086
   0.16666667  0.16666667  0.50000000
   0.50000000  0.16666667  0.50000000
   0.83333333  0.16666667  0.50000000
   0.16666667  0.50000000  0.50000000
   0.50000000  0.50000000  0.50000000
   0.83333333  0.50000000  0.50000000
   0.16666667  0.83333333  0.50000000
   0.50000000  0.83333333  0.50000000
   0.83333333  0.83333333  0.50000000
   0.99926859  0.99868295  0.56249471
   0.33024278  0.99942995  0.56012969
   0.66710610  0.99537395  0.56231111
   0.99822942  0.33082194  0.56096801
   0.33309702  0.33522079  0.56068025
   0.66592764  0.33647690  0.56115182
   0.00211340  0.66469989  0.56000482
   0.33392659  0.66975081  0.56155161
   0.66518030  0.66321808  0.56051599
   0.33141399  0.33423790  0.66676475
   0.33500899  0.32868867  0.62668307
Direct configuration=    22
   0.00000000  0.00000000  0.43904086
   0.33333333  0.00000000  0.43904086
   0.66666667  0.00000000  0.43904086
   0.00000000  0.33333333  0.43904086
   0.33333333  0.33333333  0.43904086
   0.66666667  0.33333333  0.43904086
   0.00000000  0.66666667  0.43904086
   0.33333333  0.66666667  0.43904086
   0.66666667  0.66666667  0.43904086
   0.16666667  0.16666667  0.50000000
   0.50000000  0.16666667  0.50000000
   0.83333333  0.16666667  0.50000000
   0.16666667  0.50000000  0.50000000
   0.50000000  0.50000000  0.50000000
   0.83333333  0.50000000  0.50000000
   0.16666667  0.83333333  0.50000000
   0.50000000  0.83333333  0.50000000
   0.83333333  0.83333333  0.50000000
   0.99923201  0.99861772  0.56256953
   0.33009510  0.99939817  0.56009127
   0.66712587  0.99515225  0.56237711
   0.99813769  0.33070020  0.56096981
   0.33308458  0.33531115  0.56068317
   0.66589888  0.33662287  0.56116247
   0.00221410  0.66460518  0.55996034
   0.33395525  0.66990523  0.56158149
   0.66511124  0.66305390  0.56049605
   0.33132812  0.33426975  0.66665716
   0.33507652  0.32848756  0.62654777
Direct configuration=    23
   0.00000000  0.00000000  0.43904086
   0.33333333  0.00000000  0.43904086
   0.66666667  0.00000000  0.43904086
   0.00000000  0.33333333  0.43904086
   0.33333333  0.33333333  0.43904086
   0.66666667  0.33333333  0.43904086
   0.00000000  0.66666667  0.43904086
   0.33333333  0.66666667  0.43904086
   0.66666667  0.66666667  0.43904086
   0.16666667  0.16666667  0.50000000
   0.50000000  0.16666667  0.50000000
   0.83333333  0.16666667  0.50000000
   0.16666667  0.50000000  0.50000000
   0.50000000  0.50000000  0.50000000
   0.83333333  0.50000000  0.50000000
   0.16666667  0.83333333  0.50000000
   0.50000000  0.83333333  0.50000000
   0.83333333  0.83333333  0.50000000
   0.99919544  0.99855260  0.56264395
   0.32994853  0.99936630  0.56005327
   0.66714531  0.99493205  0.56244278
   0.99804591  0.33057909  0.56097175
   0.33307208  0.33540090  0.56068757
   0.66587096  0.33676716  0.56117321
   0.00231402  0.66451104  0.55991629
   0.33398376  0.67005922  0.56161132
   0.66504297  0.66289101  0.56047639
   0.33124435  0.33429868  0.66653720
   0.33514087  0.32829227  0.62642538
Direct configuration=    24
   0.00000000  0.00000000  0.43904086
   0.33333333  0.00000000  0.43904086
   0.66666667  0.00000000  0.43904086
   0.00000000  0.33333333  0.43904086
   0.33333333  0.33333333  0.43904086
   0.66666667  0.33333333  0.43904086
   0.00000000  0.66666667  0.43904086
   0.33333333  0.66666667  0.43904086
   0.66666667  0.66666667  0.43904086
   0.16666667  0.16666667  0.50000000
   0.50000000  0.16666667  0.50000000
   0.83333333  0.16666667  0.50000000
   0.16666667  0.50000000  0.50000000
   0.50000000  0.50000000  0.50000000
   0.83333333  0.50000000  0.50000000
   0.16666667  0.83333333  0.50000000
   0.50000000  0.83333333  0.50000000
   0.83333333  0.83333333  0.50000000
   0.99915885  0.99848755  0.56271802
   0.32980302  0.99933433  0.56001565
   0.66716441  0.99471325  0.56250814
   0.99795405  0.33045858  0.56097381
   0.33305949  0.33549007  0.56069340
   0.66584386  0.33690978  0.56118404
   0.00241318  0.66441742  0.55987266
   0.33401213  0.67021284  0.56164113
   0.66497547  0.66272936  0.56045699
   0.33116270  0.33432460  0.66640479
   0.33520198  0.32810291  0.62631599
Direct configuration=    25
   0.00000000  0.00000000  0.43904086
   0.33333333  0.00000000  0.43904086
   0.66666667  0.00000000  0.43904086
   0.00000000  0.33333333  0.43904086
   0.33333333  0.33333333  0.43904086
   0.66666667  0.33333333  0.43904086
   0.00000000  0.66666667  0.43904086
   0.33333333  0.66666667  0.43904086
   0.66666667  0.66666667  0.43904086
   0.16666667  0.16666667  0.50000000
   0.50000000  0.16666667  0.50000000
   0.83333333  0.16666667  0.50000000
   0.16666667  0.50000000  0.50000000
   0.50000000  0.50000000  0.50000000
   0.83333333  0.50000000  0.50000000
   0.16666667  0.83333333  0.50000000
   0.50000000  0.83333333  0.50000000
   0.83333333  0.83333333  0.50000000
   0.99912222  0.99842252  0.56279175
   0.32965852  0.99930229  0.55997842
   0.66718318  0.99449578  0.56257323
   0.99786208  0.33033860  0.56097601
   0.33304681  0.33557871  0.56070065
   0.66581756  0.33705077  0.56119495
   0.00251163  0.66432428  0.55982943
   0.33404038  0.67036615  0.56167091
   0.66490874  0.66256889  0.56043784
   0.33108317  0.33434745  0.66626019
   0.33525981  0.32791949  0.62621928
Direct configuration=    26
   0.00000000  0.00000000  0.43904086
   0.33333333  0.00000000  0.43904086
   0.66666667  0.00000000  0.43904086
   0.00000000  0.33333333  0.43904086
   0.33333333  0.33333333  0.43904086
   0.66666667  0.33333333  0.43904086
   0.00000000  0.66666667  0.43904086
   0.33333333  0.66666667  0.43904086
   0.66666667  0.66666667  0.43904086
   0.16666667  0.16666667  0.50000000
   0.50000000  0.16666667  0.50000000
   0.83333333  0.16666667  0.50000000
   0.16666667  0.50000000  0.50000000
   0.50000000  0.50000000  0.50000000
   0.83333333  0.50000000  0.50000000
   0.16666667  0.83333333  0.50000000
   0.50000000  0.83333333  0.50000000
   0.83333333  0.83333333  0.50000000
   0.99908553  0.99835748  0.56286519
   0.32951498  0.99927016  0.55994156
   0.66720162  0.99427953  0.56263806
   0.99776995  0.33021910  0.56097835
   0.33303402  0.33566685  0.56070928
   0.66579205  0.33719017  0.56120596
   0.00260938  0.66423158  0.55978657
   0.33406851  0.67051919  0.56170068
   0.66484276  0.66240955  0.56041894
   0.33100572  0.33436722  0.66610396
   0.33531435  0.32774200  0.62613449
Direct configuration=    27
   0.00000000  0.00000000  0.43904086
   0.33333333  0.00000000  0.43904086
   0.66666667  0.00000000  0.43904086
   0.00000000  0.33333333  0.43904086
   0.33333333  0.33333333  0.43904086
   0.66666667  0.33333333  0.43904086
   0.00000000  0.66666667  0.43904086
   0.33333333  0.66666667  0.43904086
   0.66666667  0.66666667  0.43904086
   0.16666667  0.16666667  0.50000000