3
Lattice="15.0 0.0 0.0 0.0 15.1 0.0 0.0 0.0 15.2" Properties=species:S:1:pos:R:3:Z:I:1:dipole:R:1:forces:R:3 magmom=0.0 energy=-2079.03844456 pbc="F F F"
O      7.50000000       7.59530305       7.98161950        8      -0.00000000       0.00000000       5.36347586       2.52842304 
H      7.50000000       8.19161205       7.21838050        1      -0.05461638      -0.00000000       1.58729637       0.60945434 
H      7.50000000       6.90838795       7.44494140        1      -0.50705760      -0.00000000      -6.95077223      -3.13792880 
3
Lattice="15.0 0.0 0.0 0.0 15.1 0.0 0.0 0.0 15.2" Properties=species:S:1:pos:R:3:Z:I:1:dipole:R:1:forces:R:3 magmom=0.0 energy=-2079.31798758 pbc="F F F"
O      7.50000000       7.61739500       7.98161950        8      -0.00000000       0.00000000       1.72773003      -0.04118908 
H      7.50000000       8.21370400       7.21838050        1      -0.05996583      -0.00000000       1.49185701       0.55031896 
H      7.50000000       6.88629600       7.41042107        1      -0.51078513      -0.00000000      -3.21958704      -0.50912989 
3
Lattice="15.0 0.0 0.0 0.0 15.1 0.0 0.0 0.0 15.2" Properties=species:S:1:pos:R:3:Z:I:1:dipole:R:1:forces:R:3 magmom=0.0 energy=-2079.38514673 pbc="F F F"
O      7.50000000       7.63949077       7.98161950        8      -0.00000000       0.00000000      -0.74639130      -1.73071251 
H      7.50000000       8.23579977       7.21838050        1      -0.06396059      -0.00000000       1.39297238       0.48861248 
H      7.50000000       6.86420023       7.37589478        1      -0.51386547      -0.00000000      -0.64658107       1.24210003 
3
Lattice="15.0 0.0 0.0 0.0 15.1 0.0 0.0 0.0 15.2" Properties=species:S:1:pos:R:3:Z:I:1:dipole:R:1:forces:R:3 magmom=0.0 energy=-2079.3081905 pbc="F F F"
O      7.50000000       7.66158272       7.98161950        8      -0.00000000       0.00000000      -2.41097504      -2.81083303 
H      7.50000000       8.25789172       7.21838050        1      -0.06676258      -0.00000000       1.29347068       0.42423205 
H      7.50000000       6.84210828       7.34137445        1      -0.51633143      -0.00000000       1.11745294       2.38660098 
3
Lattice="15.0 0.0 0.0 0.0 15.1 0.0 0.0 0.0 15.2" Properties=species:S:1:pos:R:3:Z:I:1:dipole:R:1:forces:R:3 magmom=0.0 energy=-2079.13462287 pbc="F F F"
O      7.50000000       7.68367849       7.98161950        8       0.00000000       0.00000000      -3.51233287      -3.47160659 
H      7.50000000       8.27998749       7.21838050        1      -0.06853374      -0.00000000       1.19597444       0.35779474 
H      7.50000000       6.82001251       7.30684816        1      -0.51826293      -0.00000000       2.31635843       3.11376043 
3
Lattice="15.0 0.0 0.0 0.0 15.1 0.0 0.0 0.0 15.2" Properties=species:S:1:pos:R:3:Z:I:1:dipole:R:1:forces:R:3 magmom=0.0 energy=-2078.8976992 pbc="F F F"
O      7.50000000       7.70577045       7.98161950        8      -0.00000000       0.00000000      -4.21563248      -3.84138268 
H      7.50000000       8.30207945       7.21838050        1      -0.06944393      -0.00000000       1.10187205       0.29115174 
H      7.50000000       6.79792055       7.27232783        1      -0.51973457      -0.00000000       3.11376043       3.55023093 
3
Lattice="15.0 0.0 0.0 0.0 15.1 0.0 0.0 0.0 15.2" Properties=species:S:1:pos:R:3:Z:I:1:dipole:R:1:forces:R:3 magmom=0.0 energy=-2078.62070937 pbc="F F F"
O      7.50000000       7.72786622       7.98161950        8      -0.00000000       0.00000000      -4.64043018      -4.01153830 
H      7.50000000       8.32417522       7.21838050        1      -0.06967253      -0.00000000       1.01275761       0.22466301 
H      7.50000000       6.77582478       7.23780154        1      -0.52083103      -0.00000000       3.62767257       3.78687529 
3
Lattice="15.0 0.0 0.0 0.0 15.1 0.0 0.0 0.0 15.2" Properties=species:S:1:pos:R:3:Z:I:1:dipole:R:1:forces:R:3 magmom=0.0 energy=-2078.32023774 pbc="F F F"
O      7.50000000       7.74995817       7.98916914        8      -0.00000000      -0.00000000      -4.86653301      -4.04336856 
H      7.50000000       8.34626717       7.22593014        1      -0.06938942       0.00000000       0.92940244       0.15961410 
H      7.50000000       6.75373283       7.21083086        1      -0.52164067       0.00000000       3.93713057       3.88375446 
3
Lattice="15.0 0.0 0.0 0.0 15.1 0.0 0.0 0.0 15.2" Properties=species:S:1:pos:R:3:Z:I:1:dipole:R:1:forces:R:3 magmom=0.0 energy=-2078.00774727 pbc="F F F"
O      7.50000000       7.77205394       8.00643229        8      -0.00000000      -0.00000000      -4.95641878      -3.98418176 
H      7.50000000       8.36836294       7.24319329        1      -0.06878457      -0.00000000       0.85242361       0.09693060 
H      7.50000000       6.73163706       7.19356771        1      -0.52227462       0.00000000       4.10404660       3.88725116 
3
Lattice="15.0 0.0 0.0 0.0 15.1 0.0 0.0 0.0 15.2" Properties=species:S:1:pos:R:3:Z:I:1:dipole:R:1:forces:R:3 magmom=0.0 energy=-2077.69140637 pbc="F F F"
O      7.50000000       7.79414589       8.02369245        8      -0.00000000       0.00000000      -4.94932254      -3.86380270 
H      7.50000000       8.39045489       7.26045345        1      -0.06797070      -0.00000000       0.78202680       0.03717815 
H      7.50000000       6.70954511       7.17630755        1      -0.52277681      -0.00000000       4.16729574       3.82662454 
3
Lattice="15.0 0.0 0.0 0.0 15.1 0.0 0.0 0.0 15.2" Properties=species:S:1:pos:R:3:Z:I:1:dipole:R:1:forces:R:3 magmom=0.0 energy=-2077.37677454 pbc="F F F"
O      7.50000000       7.81624166       8.04095560        8      -0.00000000       0.00000000      -4.87697169      -3.70562842 
H      7.50000000       8.41255066       7.27771660        1      -0.06711131      -0.00000000       0.71831486      -0.01912901 
H      7.50000000       6.68744934       7.15904440        1      -0.52325095      -0.00000000       4.15870825       3.72475743 
3
Lattice="15.0 0.0 0.0 0.0 15.1 0.0 0.0 0.0 15.2" Properties=species:S:1:pos:R:3:Z:I:1:dipole:R:1:forces:R:3 magmom=0.0 energy=-2077.06771031 pbc="F F F"
O      7.50000000       7.83833361       8.05821576        8      -0.00000000      -0.00000000      -4.76168341      -3.52626825 
H      7.50000000       8.43464261       7.29497676        1      -0.06632760      -0.00000000       0.66092783      -0.07142525 
H      7.50000000       6.66535739       7.14178424        1      -0.52377008       0.00000000       4.10075558       3.59764208 
3
Lattice="15.0 0.0 0.0 0.0 15.1 0.0 0.0 0.0 15.2" Properties=species:S:1:pos:R:3:Z:I:1:dipole:R:1:forces:R:3 magmom=0.0 energy=-2076.76670316 pbc="F F F"
O      7.50000000       7.86042938       8.07547891        8      -0.00000000      -0.00000000      -4.61718740      -3.33451536 
H      7.50000000       8.45673838       7.31223991        1      -0.06572116      -0.00000000       0.61001998      -0.11991626 
H      7.50000000       6.64326162       7.12452109        1      -0.52439715       0.00000000       4.00711600       3.45443162 
3
Lattice="15.0 0.0 0.0 0.0 15.1 0.0 0.0 0.0 15.2" Properties=species:S:1:pos:R:3:Z:I:1:dipole:R:1:forces:R:3 magmom=0.0 energy=-2076.47549703 pbc="F F F"
O      7.50000000       7.88252133       8.09273907        8      -0.00000000       0.00000000      -4.45520789      -3.13957431 
H      7.50000000       8.47883033       7.32950007        1      -0.06537455      -0.00000000       0.56487141      -0.16403639 
H      7.50000000       6.62116967       7.10726093        1      -0.52518351       0.00000000       3.89038791       3.30366212 
3
Lattice="15.0 0.0 0.0 0.0 15.1 0.0 0.0 0.0 15.2" Properties=species:S:1:pos:R:3:Z:I:1:dipole:R:1:forces:R:3 magmom=0.0 energy=-2076.19509109 pbc="F F F"
O      7.50000000       7.90461710       8.11000222        8      -0.00000000       0.00000000      -4.28165842      -2.94442756 
H      7.50000000       8.50092610       7.34676322        1      -0.06533963      -0.00000000       0.52522499      -0.20409418 
H      7.50000000       6.59907390       7.08999778        1      -0.52616196      -0.00000000       3.75643342       3.14852175 
3
Lattice="15.0 0.0 0.0 0.0 15.1 0.0 0.0 0.0 15.2" Properties=species:S:1:pos:R:3:Z:I:1:dipole:R:1:forces:R:3 magmom=0.0 energy=-2075.92629967 pbc="F F F"
O      7.50000000       7.92670906       8.12726238        8       0.00000000       0.00000000      -4.10224682      -2.75303463 
H      7.50000000       8.52301806       7.36402338        1      -0.06580848      -0.00000000       0.49087505      -0.23993537 
H      7.50000000       6.57698194       7.07273762        1      -0.52748596      -0.00000000       3.61142319       2.99296999 
3
Lattice="15.0 0.0 0.0 0.0 15.1 0.0 0.0 0.0 15.2" Properties=species:S:1:pos:R:3:Z:I:1:dipole:R:1:forces:R:3 magmom=0.0 energy=-2075.66940295 pbc="F F F"
O      7.50000000       7.94880483       8.14452553        8       0.00000000       0.00000000      -3.91995560      -2.56596115 
H      7.50000000       8.54511383       7.38128653        1      -0.06628156      -0.00000000       0.46099883      -0.27243411 
H      7.50000000       6.55488617       7.05547447        1      -0.52873799      -0.00000000       3.45900819       2.83839526 
3
Lattice="15.0 0.0 0.0 0.0 15.1 0.0 0.0 0.0 15.2" Properties=species:S:1:pos:R:3:Z:I:1:dipole:R:1:forces:R:3 magmom=0.0 energy=-2075.42465648 pbc="F F F"
O      7.50000000       7.97089678       8.16178569        8       0.00000000       0.00000000      -3.73715015      -2.38603534 
H      7.50000000       8.56720578       7.39854669        1      -0.06729917      -0.00000000       0.43492784      -0.30035629 
H      7.50000000       6.53279422       7.03821431        1      -0.53036416      -0.00000000       3.30222230       2.68634021 
3
Lattice="15.0 0.0 0.0 0.0 15.1 0.0 0.0 0.0 15.2" Properties=species:S:1:pos:R:3:Z:I:1:dipole:R:1:forces:R:3 magmom=0.0 energy=-2075.19203986 pbc="F F F"
O      7.50000000       7.99299255       8.17904884        8       0.00000000       0.00000000      -3.55727576      -2.21248586 
H      7.50000000       8.58930155       7.41580984        1      -0.06865598      -0.00000000       0.41327915      -0.32560453 
H      7.50000000       6.51069845       7.02095116        1      -0.53219722      -0.00000000       3.14399660       2.53814181 
3
Lattice="15.0 0.0 0.0 0.0 15.1 0.0 0.0 0.0 15.2" Properties=species:S:1:pos:R:3:Z:I:1:dipole:R:1:forces:R:3 magmom=0.0 energy=-2074.97150146 pbc="F F F"
O      7.50000000       8.01508450       8.19630900        8       0.00000000       0.00000000      -3.38074380      -2.04664969 
H      7.50000000       8.61139350       7.43307000        1      -0.07029220       0.00000000       0.39497290      -0.34766460 
H      7.50000000       6.48860650       7.00369100        1      -0.53419169      -0.00000000       2.98577090       2.39431429 
3
Lattice="15.0 0.0 0.0 0.0 15.1 0.0 0.0 0.0 15.2" Properties=species:S:1:pos:R:3:Z:I:1:dipole:R:1:forces:R:3 magmom=0.0 energy=-2079.14877949 pbc="F F F"
O      7.50000000       7.56480281       7.95569033        8      -0.00000000       0.00000000       5.45953229       2.93121209 
H      7.50000000       8.22211229       7.24430967        1      -0.03007102      -0.00000000       1.04016557       0.54661657 
H      7.50000000       6.87788771       7.41901223        1      -0.49588191      -0.00000000      -6.49969786      -3.47782866 
3
Lattice="15.0 0.0 0.0 0.0 15.1 0.0 0.0 0.0 15.2" Properties=species:S:1:pos:R:3:Z:I:1:dipole:R:1:forces:R:3 magmom=0.0 energy=-2079.41989586 pbc="F F F"
O      7.50000000       7.58689476       7.95569033        8       0.00000000       0.00000000       1.81756438       0.33604321 
H      7.50000000       8.24420425       7.24430967        1      -0.03668839      -0.00000000       0.97300835       0.47246595 
H      7.50000000       6.85579575       7.38449190        1      -0.49961578      -0.00000000      -2.79052131      -0.80850916 
3
Lattice="15.0 0.0 0.0 0.0 15.1 0.0 0.0 0.0 15.2" Properties=species:S:1:pos:R:3:Z:I:1:dipole:R:1:forces:R:3 magmom=0.0 energy=-2079.47828617 pbc="F F F"
O      7.50000000       7.60899053       7.95569033        8      -0.00000000       0.00000000      -0.66252191      -1.37471754 
H      7.50000000       8.26630002       7.24430967        1      -0.04197063      -0.00000000       0.90189163       0.39718405 
H      7.50000000       6.83369998       7.34996561        1      -0.50268025      -0.00000000      -0.23936972       0.97753350 
3
Lattice="15.0 0.0 0.0 0.0 15.1 0.0 0.0 0.0 15.2" Properties=species:S:1:pos:R:3:Z:I:1:dipole:R:1:forces:R:3 magmom=0.0 energy=-2079.39243139 pbc="F F F"
O      7.50000000       7.63108248       7.95569033        8      -0.00000000       0.00000000      -2.33317345      -2.47206445 
H      7.50000000       8.28839197       7.24430967        1      -0.04605429      -0.00000000       0.83077492       0.32020521 
H      7.50000000       6.81160803       7.31544528        1      -0.50510811      -0.00000000       1.50239853       2.15185924 
3
Lattice="15.0 0.0 0.0 0.0 15.1 0.0 0.0 0.0 15.2" Properties=species:S:1:pos:R:3:Z:I:1:dipole:R:1:forces:R:3 magmom=0.0 energy=-2079.21002993 pbc="F F F"
O      7.50000000       7.65317825       7.95569033        8       0.00000000       0.00000000      -3.43890216      -3.14811037 
H      7.50000000       8.31048774       7.24430967        1      -0.04907748      -0.00000000       0.76048095       0.24368918 
H      7.50000000       6.78951226       7.28091899        1      -0.50697717      -0.00000000       2.67842121       2.90447262 
3
Lattice="15.0 0.0 0.0 0.0 15.1 0.0 0.0 0.0 15.2" Properties=species:S:1:pos:R:3:Z:I:1:dipole:R:1:forces:R:3 magmom=0.0 energy=-2078.9644822 pbc="F F F"
O      7.50000000       7.67527020       7.95569033        8       0.00000000       0.00000000      -4.14574989      -3.53048486 
H      7.50000000       8.33257969       7.24430967        1      -0.05118731      -0.00000000       0.69337515       0.16820158 
H      7.50000000       6.76742031       7.24639866        1      -0.50835885      -0.00000000       3.45232332       3.36228328 
3
Lattice="15.0 0.0 0.0 0.0 15.1 0.0 0.0 0.0 15.2" Properties=species:S:1:pos:R:3:Z:I:1:dipole:R:1:forces:R:3 magmom=0.0 energy=-2078.67922585 pbc="F F F"
O      7.50000000       7.69736597       7.97190898        8      -0.00000000       0.00000000      -4.57358149      -3.71149054 
H      7.50000000       8.35467546       7.26052833        1      -0.05254518      -0.00000000       0.63074307       0.09446234 
H      7.50000000       6.74532454       7.22809102        1      -0.50933994      -0.00000000       3.94283842       3.61702820 
3
Lattice="15.0 0.0 0.0 0.0 15.1 0.0 0.0 0.0 15.2" Properties=species:S:1:pos:R:3:Z:I:1:dipole:R:1:forces:R:3 magmom=0.0 energy=-2078.37092656 pbc="F F F"
O      7.50000000       7.71945792       7.98916914        8      -0.00000000       0.00000000      -4.80220400      -3.75381090 
H      7.50000000       8.37676741       7.27778849        1      -0.05330878      -0.00000000       0.57309894       0.02432264 
H      7.50000000       6.72323259       7.21083086        1      -0.51000671      -0.00000000       4.22910506       3.72948826 
3
Lattice="15.0 0.0 0.0 0.0 15.1 0.0 0.0 0.0 15.2" Properties=species:S:1:pos:R:3:Z:I:1:dipole:R:1:forces:R:3 magmom=0.0 energy=-2078.0511399 pbc="F F F"
O      7.50000000       7.74155369       8.00643229        8      -0.00000000       0.00000000      -4.89383813      -3.70454856 
H      7.50000000       8.39886318       7.29505164        1      -0.05366016      -0.00000000       0.52095696      -0.04175472 
H      7.50000000       6.70113682       7.19356771        1      -0.51047133       0.00000000       4.37293259       3.74630328 
3
Lattice="15.0 0.0 0.0 0.0 15.1 0.0 0.0 0.0 15.2" Properties=species:S:1:pos:R:3:Z:I:1:dipole:R:1:forces:R:3 magmom=0.0 energy=-2077.72806366 pbc="F F F"
O      7.50000000       7.76364565       8.02369245        8      -0.00000000       0.00000000      -4.88859307      -3.59373400 
H      7.50000000       8.42095514       7.31231180        1      -0.05370672      -0.00000000       0.47431715      -0.10330693 
H      7.50000000       6.67904486       7.17630755        1      -0.51078036      -0.00000000       4.41427593       3.69709236 
3
Lattice="15.0 0.0 0.0 0.0 15.1 0.0 0.0 0.0 15.2" Properties=species:S:1:pos:R:3:Z:I:1:dipole:R:1:forces:R:3 magmom=0.0 energy=-2077.40729104 pbc="F F F"
O      7.50000000       7.78574141       8.04095560        8      -0.00000000       0.00000000      -4.81747636      -3.44512423 
H      7.50000000       8.44305090       7.32957495        1      -0.05361200      -0.00000000       0.43328234      -0.15997405 
H      7.50000000       6.65694910       7.15904440        1      -0.51104072      -0.00000000       4.38419402       3.60509828 
3
Lattice="15.0 0.0 0.0 0.0 15.1 0.0 0.0 0.0 15.2" Properties=species:S:1:pos:R:3:Z:I:1:dipole:R:1:forces:R:3 magmom=0.0 energy=-2077.09268516 pbc="F F F"
O      7.50000000       7.80783337       8.05821576        8      -0.00000000       0.00000000      -4.70357648      -3.27558567 
H      7.50000000       8.46514286       7.34683511        1      -0.05349770      -0.00000000       0.39759542      -0.21134470 
H      7.50000000       6.63485714       7.14178424        1      -0.51132859      -0.00000000       4.30598105       3.48693037 
3
Lattice="15.0 0.0 0.0 0.0 15.1 0.0 0.0 0.0 15.2" Properties=species:S:1:pos:R:3:Z:I:1:dipole:R:1:forces:R:3 magmom=0.0 energy=-2076.78673753 pbc="F F F"
O      7.50000000       7.82992914       8.07547891        8      -0.00000000       0.00000000      -4.56046886      -3.09339729 
H      7.50000000       8.48723863       7.36409826        1      -0.05346859      -0.00000000       0.36746209      -0.25803593 
H      7.50000000       6.61276137       7.12452109        1      -0.51171278      -0.00000000       4.19300677       3.35138180 
3
Lattice="15.0 0.0 0.0 0.0 15.1 0.0 0.0 0.0 15.2" Properties=species:S:1:pos:R:3:Z:I:1:dipole:R:1:forces:R:3 magmom=0.0 energy=-2076.49115569 pbc="F F F"
O      7.50000000       7.85202109       8.09273907        8      -0.00000000       0.00000000      -4.40008344      -2.90853496 
H      7.50000000       8.50933058       7.38135842        1      -0.05360988      -0.00000000       0.34185390      -0.29907074 
H      7.50000000       6.59066942       7.10726093        1      -0.51224671      -0.00000000       4.05822953       3.20760570 
3
Lattice="15.0 0.0 0.0 0.0 15.1 0.0 0.0 0.0 15.2" Properties=species:S:1:pos:R:3:Z:I:1:dipole:R:1:forces:R:3 magmom=0.0 energy=-2076.2069187 pbc="F F F"
O      7.50000000       7.87411686       8.11000222        8      -0.00000000       0.00000000      -4.22776809      -2.72346694 
H      7.50000000       8.53142635       7.39862157        1      -0.05391363      -0.00000000       0.32061659      -0.33506619 
H      7.50000000       6.56857365       7.08999778        1      -0.51292618      -0.00000000       3.90715150       3.05853313 
3
Lattice="15.0 0.0 0.0 0.0 15.1 0.0 0.0 0.0 15.2" Properties=species:S:1:pos:R:3:Z:I:1:dipole:R:1:forces:R:3 magmom=0.0 energy=-2075.93480579 pbc="F F F"
O      7.50000000       7.89620881       8.12726238        8      -0.00000000       0.00000000      -4.05005343      -2.54210131 
H      7.50000000       8.55351830       7.41588173        1      -0.05456717      -0.00000000       0.30354446      -0.36643365 
H      7.50000000       6.54648170       7.07273762        1      -0.51387552      -0.00000000       3.74650896       2.90853496 
3
Lattice="15.0 0.0 0.0 0.0 15.1 0.0 0.0 0.0 15.2" Properties=species:S:1:pos:R:3:Z:I:1:dipole:R:1:forces:R:3 magmom=0.0 energy=-2075.6750504 pbc="F F F"
O      7.50000000       7.91830458       8.14452553        8       0.00000000       0.00000000      -3.87038472      -2.36639211 
H      7.50000000       8.57561407       7.43314488        1      -0.05550169      -0.00000000       0.29017472      -0.39332739 
H      7.50000000       6.52438593       7.05547447        1      -0.51504395      -0.00000000       3.58021000       2.75971950 
3
Lattice="15.0 0.0 0.0 0.0 15.1 0.0 0.0 0.0 15.2" Properties=species:S:1:pos:R:3:Z:I:1:dipole:R:1:forces:R:3 magmom=0.0 energy=-2075.4278731 pbc="F F F"
O      7.50000000       7.94039653       8.16178569        8       0.00000000       0.00000000      -3.68927620      -2.19741919 
H      7.50000000       8.59770602       7.45040504        1      -0.05668917      -0.00000000       0.27922182      -0.41523319 
H      7.50000000       6.50229398       7.03821431        1      -0.51641663      -0.00000000       3.41005438       2.61270381 
3
Lattice="15.0 0.0 0.0 0.0 15.1 0.0 0.0 0.0 15.2" Properties=species:S:1:pos:R:3:Z:I:1:dipole:R:1:forces:R:3 magmom=0.0 energy=-2075.19322444 pbc="F F F"
O      7.50000000       7.96249230       8.17904884        8       0.00000000       0.00000000      -3.51171581      -2.03477119 
H      7.50000000       8.61980179       7.46766819        1      -0.05814335      -0.00000000       0.27191989      -0.43436220 
H      7.50000000       6.48019821       7.02095116        1      -0.51800046      -0.00000000       3.23979591       2.46913340 
3
Lattice="15.0 0.0 0.0 0.0 15.1 0.0 0.0 0.0 15.2" Properties=species:S:1:pos:R:3:Z:I:1:dipole:R:1:forces:R:3 magmom=0.0 energy=-2074.9710006 pbc="F F F"
O      7.50000000       7.98458426       8.19630900        8       0.00000000       0.00000000      -3.33770353      -1.87973366 
H      7.50000000       8.64189374       7.48492835        1      -0.05984306      -0.00000000       0.26693195      -0.44999451 
H      7.50000000       6.45810626       7.00369100        1      -0.51977585      -0.00000000       3.07077158       2.32972817 
3
Lattice="15.0 0.0 0.0 0.0 15.1 0.0 0.0 0.0 15.2" Properties=species:S:1:pos:R:3:Z:I:1:dipole:R:1:forces:R:3 magmom=0.0 energy=-2079.22108214 pbc="F F F"
O      7.50000000       7.53655861       7.92734186        8      -0.00000000       0.00000000       5.52643239       3.38876564 
H      7.50000000       8.25035649       7.27265814        1      -0.00642421      -0.00000000       0.55592397       0.40875401 
H      7.50000000       6.84964351       7.39066376        1      -0.48228417      -0.00000000      -6.08235636      -3.79757108 
3
Lattice="15.0 0.0 0.0 0.0 15.1 0.0 0.0 0.0 15.2" Properties=species:S:1:pos:R:3:Z:I:1:dipole:R:1:forces:R:3 magmom=0.0 energy=-2079.48461347 pbc="F F F"
O      7.50000000       7.55865056       7.92734186        8      -0.00000000       0.00000000       1.87875664       0.76875990 
H      7.50000000       8.27244845       7.27265814        1      -0.01435922      -0.00000000       0.51437494       0.32401044 
H      7.50000000       6.82755155       7.35614343        1      -0.48611277      -0.00000000      -2.39313158      -1.09277035 
3
Lattice="15.0 0.0 0.0 0.0 15.1 0.0 0.0 0.0 15.2" Properties=species:S:1:pos:R:3:Z:I:1:dipole:R:1:forces:R:3 magmom=0.0 energy=-2079.53515359 pbc="F F F"
O      7.50000000       7.58074633       7.92734186        8      -0.00000000       0.00000000      -0.60714035      -0.96298105 
H      7.50000000       8.29454421       7.27265814        1      -0.02098558      -0.00000000       0.46932921       0.23890692 
H      7.50000000       6.80545579       7.32161714        1      -0.48925238       0.00000000       0.13781114       0.72407413 
3
Lattice="15.0 0.0 0.0 0.0 15.1 0.0 0.0 0.0 15.2" Properties=species:S:1:pos:R:3:Z:I:1:dipole:R:1:forces:R:3 magmom=0.0 energy=-2079.44137973 pbc="F F F"
O      7.50000000       7.60283828       7.92734186        8      -0.00000000       0.00000000      -2.28221418      -2.07817142 
H      7.50000000       8.31663617       7.27265814        1      -0.02641123      -0.00000000       0.42356357       0.15370056 
H      7.50000000       6.78336383       7.28709681        1      -0.49173263       0.00000000       1.85865061       1.92447086 
3
Lattice="15.0 0.0 0.0 0.0 15.1 0.0 0.0 0.0 15.2" Properties=species:S:1:pos:R:3:Z:I:1:dipole:R:1:forces:R:3 magmom=0.0 energy=-2079.25116945 pbc="F F F"
O      7.50000000       7.62493405       7.93738567        8      -0.00000000       0.00000000      -3.39226234      -2.76882120 
H      7.50000000       8.33873194       7.28270195        1      -0.03074573      -0.00000000       0.37923774       0.06967690 
H      7.50000000       6.76126806       7.26261433        1      -0.49362126      -0.00000000       3.01302460       2.69914430 
3
Lattice="15.0 0.0 0.0 0.0 15.1 0.0 0.0 0.0 15.2" Properties=species:S:1:pos:R:3:Z:I:1:dipole:R:1:forces:R:3 magmom=0.0 energy=-2078.99809095 pbc="F F F"
O      7.50000000       7.64702600       7.95464583        8      -0.00000000       0.00000000      -4.10193829      -3.16405121 
H      7.50000000       8.36082389       7.29996211        1      -0.03411341      -0.00000000       0.33732876      -0.01141570 
H      7.50000000       6.73917611       7.24535417        1      -0.49498919      -0.00000000       3.76460953       3.17541549 
3
Lattice="15.0 0.0 0.0 0.0 15.1 0.0 0.0 0.0 15.2" Properties=species:S:1:pos:R:3:Z:I:1:dipole:R:1:forces:R:3 magmom=0.0 energy=-2078.70569243 pbc="F F F"
O      7.50000000       7.66912177       7.97190898        8      -0.00000000       0.00000000      -4.53182677      -3.35729534 
H      7.50000000       8.38291966       7.31722526        1      -0.03665452      -0.00000000       0.29917359      -0.08875449 
H      7.50000000       6.71708034       7.22809102        1      -0.49591472      -0.00000000       4.23265319       3.44604983 
3
Lattice="15.0 0.0 0.0 0.0 15.1 0.0 0.0 0.0 15.2" Properties=species:S:1:pos:R:3:Z:I:1:dipole:R:1:forces:R:3 magmom=0.0 energy=-2078.39073472 pbc="F F F"
O      7.50000000       7.69121373       7.98916914        8      -0.00000000       0.00000000      -4.76183768      -3.41072287 
H      7.50000000       8.40501161       7.33448542        1      -0.03851193      -0.00000000       0.26518360      -0.16115676 
H      7.50000000       6.69498839       7.21083086        1      -0.49648570      -0.00000000       4.49665408       3.57187962 
3
Lattice="15.0 0.0 0.0 0.0 15.1 0.0 0.0 0.0 15.2" Properties=species:S:1:pos:R:3:Z:I:1:dipole:R:1:forces:R:3 magmom=0.0 energy=-2078.06485423 pbc="F F F"
O      7.50000000       7.71330949       8.00643229        8      -0.00000000       0.00000000      -4.85383176      -3.37195063 
H      7.50000000       8.42710738       7.35174857        1      -0.03983487      -0.00000000       0.23571876      -0.22805687 
H      7.50000000       6.67289262       7.19356771        1      -0.49679157      -0.00000000       4.61811300       3.60000749 
3
Lattice="15.0 0.0 0.0 0.0 15.1 0.0 0.0 0.0 15.2" Properties=species:S:1:pos:R:3:Z:I:1:dipole:R:1:forces:R:3 magmom=0.0 energy=-2077.73629633 pbc="F F F"
O      7.50000000       7.73540145       8.02369245        8      -0.00000000       0.00000000      -4.84889524      -3.27219182 
H      7.50000000       8.44919933       7.36900873        1      -0.04079745      -0.00000000       0.21083048      -0.28873491 
H      7.50000000       6.65080067       7.17630755        1      -0.49695085      -0.00000000       4.63801334       3.56092672 
3
Lattice="15.0 0.0 0.0 0.0 15.1 0.0 0.0 0.0 15.2" Properties=species:S:1:pos:R:3:Z:I:1:dipole:R:1:forces:R:3 magmom=0.0 energy=-2077.41064296 pbc="F F F"
O      7.50000000       7.75749722       8.04095560        8      -0.00000000      -0.00000000      -4.77803563      -3.13458637 
H      7.50000000       8.47129510       7.38627188        1      -0.04148749       0.00000000       0.19067302      -0.34308803 
H      7.50000000       6.62870490       7.15904440        1      -0.49700535       0.00000000       4.58736261       3.47767440 
3
Lattice="15.0 0.0 0.0 0.0 15.1 0.0 0.0 0.0 15.2" Properties=species:S:1:pos:R:3:Z:I:1:dipole:R:1:forces:R:3 magmom=0.0 energy=-2077.09176002 pbc="F F F"
O      7.50000000       7.77958917       8.05821576        8      -0.00000000       0.00000000      -4.66439286      -2.97636067 
H      7.50000000       8.49338706       7.40353204        1      -0.04205265      -0.00000000       0.17478361      -0.39096198 
H      7.50000000       6.60661294       7.14178424        1      -0.49705986      -0.00000000       4.48960926       3.36732264 
3
Lattice="15.0 0.0 0.0 0.0 15.1 0.0 0.0 0.0 15.2" Properties=species:S:1:pos:R:3:Z:I:1:dipole:R:1:forces:R:3 magmom=0.0 energy=-2076.78211827 pbc="F F F"
O      7.50000000       7.80168494       8.07547891        8      -0.00000000       0.00000000      -4.52128525      -2.80599936 
H      7.50000000       8.51548282       7.42079519        1      -0.04259982      -0.00000000       0.16347075      -0.43281954 
H      7.50000000       6.58451718       7.12452109        1      -0.49718898      -0.00000000       4.35781450       3.23881890 
3
Lattice="15.0 0.0 0.0 0.0 15.1 0.0 0.0 0.0 15.2" Properties=species:S:1:pos:R:3:Z:I:1:dipole:R:1:forces:R:3 magmom=0.0 energy=-2076.4834117 pbc="F F F"
O      7.50000000       7.82377689       8.09273907        8       0.00000000       0.00000000      -4.36095124      -2.63306695 
H      7.50000000       8.53757478       7.43805535        1      -0.04318139       0.00000000       0.15534606      -0.46830076 
H      7.50000000       6.56242522       7.10726093        1      -0.49742922      -0.00000000       4.20560518       3.10136771 
3
Lattice="15.0 0.0 0.0 0.0 15.1 0.0 0.0 0.0 15.2" Properties=species:S:1:pos:R:3:Z:I:1:dipole:R:1:forces:R:3 magmom=0.0 energy=-2076.19657777 pbc="F F F"
O      7.50000000       7.84587266       8.11000222        8      -0.00000000       0.00000000      -4.18935581      -2.46059733 
H      7.50000000       8.55967055       7.45531850        1      -0.04396986      -0.00000000       0.15082092      -0.49807414 
H      7.50000000       6.54032945       7.08999778        1      -0.49789437      -0.00000000       4.03853488       2.95867147 
3