12
Lattice="8.3244852922 0.0 0.0 2.77482843073 4.80614382431 0.0 0.0 0.0 12.5312758527" Properties=species:S:1:pos:R:3:momenta:R:3:Z:I:1:tags:I:1:magmoms:R:1:forces:R:3 energy=-14511.9568006 pbc="T T T"
Pt      1.38741422       0.80102397       4.00000000       0.00000000       0.00000000       0.00000000       78        3       0.00000000      -0.74214182      -1.07851827      -1.82135251 
Pt      4.16224265       0.80102397       4.00000000       0.00000000       0.00000000       0.00000000       78        3       0.00000000       1.01040169       0.71650675      -2.95471053 
Pt      6.93707108       0.80102397       4.00000000       0.00000000       0.00000000       0.00000000       78        3       0.00000000       0.28813986       0.08067362      -1.81225077 
Pt      2.77482843       3.20409588       4.00000000       0.00000000       0.00000000       0.00000000       78        3       0.00000000       0.69949423       0.61680225      -1.47411005 
Pt      5.54965686       3.20409588       4.00000000       0.00000000       0.00000000       0.00000000       78        3       0.00000000      -0.28594221      -0.13121232      -0.00573979 
Pt      8.32448529       3.20409588       4.00000000       0.00000000       0.00000000       0.00000000       78        3       0.00000000      -0.14158463       0.06316444      -0.23068804 
Pt     -1.40184069       2.28813560       6.29492039      -6.92367632       2.52837890      -1.27794727       78        2       0.00000000       0.52801532       3.69355219       0.51749810 
Pt      3.06257092       0.26791630       6.13706533      -5.67511878       4.72606631      -3.76586632       78        2       0.00000000      -1.41237995      -6.02386581       2.59367739 
Pt      3.89094716       2.54535356       6.49073280       1.40630058       7.42643603       9.45927266       78        2       0.00000000       6.68845433       2.77927963       1.24864764 
Pt      0.06622093       4.98015100       6.23684042      -1.75549408      -0.24736976      -1.91037662       78        2       0.00000000      -2.32351688      -2.22764950       1.23905484 
Pt      1.60742944       2.21255123       6.14163688       3.52849063     -12.26746666       0.23828517       78        2       0.00000000      -7.29339760       2.15369034       1.90644745 
Pt      8.07983773       0.01764895       6.34797234       8.47960239      -2.34471897      -3.10426457       78        1       0.00000000       2.99010865      -0.62332314       0.80139696 
12
Lattice="8.3244852922 0.0 0.0 2.77482843073 4.80614382431 0.0 0.0 0.0 12.5312758527" Properties=species:S:1:pos:R:3:momenta:R:3:Z:I:1:tags:I:1:magmoms:R:1:forces:R:3 energy=-14513.7477468 pbc="T T T"
Pt      1.38741422       0.80102397       4.00000000       0.00000000       0.00000000       0.00000000       78        3       0.00000000      -0.97317276       0.06776597      -2.03590962 
Pt      4.16224265       0.80102397       4.00000000       0.00000000       0.00000000       0.00000000       78        3       0.00000000       0.87836014       0.81676850      -1.43495000 
Pt      6.93707108       0.80102397       4.00000000       0.00000000       0.00000000       0.00000000       78        3       0.00000000       0.11407310       0.02477831      -1.01788862 
Pt      2.77482843       3.20409588       4.00000000       0.00000000       0.00000000       0.00000000       78        3       0.00000000       0.38285382       0.18200866      -0.81134366 
Pt      5.54965686       3.20409588       4.00000000       0.00000000       0.00000000       0.00000000       78        3       0.00000000      -1.13520442      -0.25568019      -2.04350052 
Pt      8.32448529       3.20409588       4.00000000       0.00000000       0.00000000       0.00000000       78        3       0.00000000       0.61231920       0.09442864      -2.34501092 
Pt     -1.41532556       2.69306294       6.08666436      -8.05140106      -3.29137126      -2.94080506       78        2       0.00000000      -0.61916122      -2.12063708       3.07401694 
Pt      2.79241329       0.23520312       6.06898510       4.90633315       2.38543778      -3.09231010       78        2       0.00000000       0.63835256      -0.27739278       3.16453769 
Pt      4.08236362       2.85537951       6.46309495      -5.85342707       0.95097916      -0.14867181       78        2       0.00000000       1.05534008      -2.07943991       0.14414315 
Pt      0.09891101       4.77994005       6.24902891       2.08161343       0.44428081       0.18222990       78        2       0.00000000      -0.48774615       1.92797465       1.14706112 
Pt      1.42655557       2.44591851       6.20712614       5.42408374      -1.37926561      11.97402716       78        2       0.00000000      -0.29011725       0.81653413       1.65888001 
Pt      8.25633250       0.19472998       6.36511594       1.63770257       1.04020836      -6.36312918       78        1       0.00000000      -0.17609013       0.80180612       0.49363763 
12
Lattice="8.3244852922 0.0 0.0 2.77482843073 4.80614382431 0.0 0.0 0.0 12.5312758527" Properties=species:S:1:pos:R:3:momenta:R:3:Z:I:1:tags:I:1:magmoms:R:1:forces:R:3 energy=-14513.1820938 pbc="T T T"
Pt      1.38741422       0.80102397       4.00000000       0.00000000       0.00000000       0.00000000       78        3       0.00000000      -0.37673730      -0.08510596      -0.82402105 
Pt      4.16224265       0.80102397       4.00000000       0.00000000       0.00000000       0.00000000       78        3       0.00000000      -0.87342447       0.90873929      -1.48707478 
Pt      6.93707108       0.80102397       4.00000000       0.00000000       0.00000000       0.00000000       78        3       0.00000000       1.58638470       0.76447855      -2.13074715 
Pt      2.77482843       3.20409588       4.00000000       0.00000000       0.00000000       0.00000000       78        3       0.00000000       0.35888013       0.29469151      -0.52042956 
Pt      5.54965686       3.20409588       4.00000000       0.00000000       0.00000000       0.00000000       78        3       0.00000000      -0.90525529       0.32539885      -1.36747194 
Pt      8.32448529       3.20409588       4.00000000       0.00000000       0.00000000       0.00000000       78        3       0.00000000       0.34858857      -1.78494064      -2.81555216 
Pt     -1.54091270       2.76932135       6.18406819       2.36695517      -8.47135621       5.21012088       78        2       0.00000000       0.10085801      -1.47337927       2.00172313 
Pt      2.72648243       0.42199442       6.30773186       2.52906598      -3.25410618       2.77029854       78        2       0.00000000       1.38330679      -2.51834221       0.97933515 
Pt      4.17319019       2.75894526       6.48745583       2.36563215      -4.20214480       4.13356699       78        2       0.00000000       0.73539302       0.31957445       0.02485366 
Pt      0.08217702       4.75781633       5.92725989      -5.46921527       5.28805563      -5.82418027       78        2       0.00000000       0.04893231       2.14748733       5.13327657 
Pt      1.63213172       2.60978771       6.31203505       1.19194197      -2.31974339       0.36163085       78        2       0.00000000      -1.47429479       2.97787399       0.73625558 
Pt      8.36732295       0.60980025       6.47838430      -2.92096157      12.96443213      -6.77131550       78        1       0.00000000      -0.93310322      -1.87790448       0.26321347 
12
Lattice="8.3244852922 0.0 0.0 2.77482843073 4.80614382431 0.0 0.0 0.0 12.5312758527" Properties=species:S:1:pos:R:3:momenta:R:3:Z:I:1:tags:I:1:magmoms:R:1:forces:R:3 energy=-14513.3289386 pbc="T T T"
Pt      1.38741422       0.80102397       4.00000000       0.00000000       0.00000000       0.00000000       78        3       0.00000000       1.32781486       0.55624826      -2.33615149 
Pt      4.16224265       0.80102397       4.00000000       0.00000000       0.00000000       0.00000000       78        3       0.00000000       0.41049375       0.16086809      -0.95787931 
Pt      6.93707108       0.80102397       4.00000000       0.00000000       0.00000000       0.00000000       78        3       0.00000000      -0.60624971      -0.27024613      -1.66784934 
Pt      2.77482843       3.20409588       4.00000000       0.00000000       0.00000000       0.00000000       78        3       0.00000000       0.56114069      -0.37476706      -1.47914659 
Pt      5.54965686       3.20409588       4.00000000       0.00000000       0.00000000       0.00000000       78        3       0.00000000      -0.54006168       0.28496129      -0.97384261 
Pt      8.32448529       3.20409588       4.00000000       0.00000000       0.00000000       0.00000000       78        3       0.00000000      -0.80165054       0.45186282      -1.60814614 
Pt     -1.61960695       2.29832243       6.19235675      -0.45348338      -6.76394875       2.83780465       78        2       0.00000000       2.05819763       2.66438210       1.50912352 
Pt      2.96835757       0.10413920       6.27140570      -2.41584086       4.32078403       9.09388343       78        2       0.00000000      -2.18744964      -2.32589181       0.78162782 
Pt      4.03567693       2.32211092       6.41087334       2.44919595      -1.70367669     -10.12823785       78        2       0.00000000       0.36698364       2.73261468       0.44350111 
Pt      0.03348713       4.93676592       6.47978778       1.18282071       1.17935489       0.38103288       78        2       0.00000000      -1.26376340      -0.96212166       0.75417694 
Pt      1.26815833       2.79643803       6.15327490     -10.03444999       3.04245848      -6.28551653       78        2       0.00000000       1.20252455      -2.44997678       2.16492767 
Pt      8.50012543       0.16255855       6.05898423       9.23395605      -0.43918723       3.85891775       78        1       0.00000000      -0.52806152      -0.47119983       3.36827692 
12
Lattice="8.3244852922 0.0 0.0 2.77482843073 4.80614382431 0.0 0.0 0.0 12.5312758527" Properties=species:S:1:pos:R:3:momenta:R:3:Z:I:1:tags:I:1:magmoms:R:1:forces:R:3 energy=-14512.7237563 pbc="T T T"
Pt      1.38741422       0.80102397       4.00000000       0.00000000       0.00000000       0.00000000       78        3       0.00000000       1.77027943       0.17865087      -2.19200850 
Pt      4.16224265       0.80102397       4.00000000       0.00000000       0.00000000       0.00000000       78        3       0.00000000      -0.44205166       0.03005202      -0.44413353 
Pt      6.93707108       0.80102397       4.00000000       0.00000000       0.00000000       0.00000000       78        3       0.00000000      -0.90472332      -0.06492785      -3.18995808 
Pt      2.77482843       3.20409588       4.00000000       0.00000000       0.00000000       0.00000000       78        3       0.00000000       0.68632340      -0.16568309      -1.49469831 
Pt      5.54965686       3.20409588       4.00000000       0.00000000       0.00000000       0.00000000       78        3       0.00000000      -0.42775961       0.42518222      -0.03910908 
Pt      8.32448529       3.20409588       4.00000000       0.00000000       0.00000000       0.00000000       78        3       0.00000000      -0.19127396      -0.31520442      -1.55364082 
Pt     -1.50375579       2.22966211       6.18597364       0.30315906      -1.35750236       4.80910510       78        2       0.00000000      -0.83321868       2.83586056       1.80546892 
Pt      2.91120988       0.23744121       6.65098919      -5.34862214       0.11814473       0.28846442       78        2       0.00000000      -2.44996628      -4.60171908      -0.01635010 
Pt      3.98725396       2.30098278       6.41405404     -13.05712855      -9.48526496      -9.81131158       78        2       0.00000000       4.22713022       4.20483685      -0.26396375 
Pt      0.01295442       4.67920560       6.17526523      -2.36418208       8.56225302       2.36637795       78        2       0.00000000      -1.31518805       0.92755947       1.84885572 
Pt      1.50541950       2.60840859       6.24335215      12.01635757       6.83998230      -0.05867696       78        2       0.00000000      -1.05627962      -0.95129404       1.44360013 
Pt      8.40224819       0.27524307       6.01918410       8.62224480      -4.33130454       1.76615135       78        1       0.00000000       0.93445926      -2.50346451       4.11746657 
12
Lattice="8.3244852922 0.0 0.0 2.77482843073 4.80614382431 0.0 0.0 0.0 12.5312758527" Properties=species:S:1:pos:R:3:momenta:R:3:Z:I:1:tags:I:1:magmoms:R:1:forces:R:3 energy=-14513.4026607 pbc="T T T"
Pt      1.38741422       0.80102397       4.00000000       0.00000000       0.00000000       0.00000000       78        3       0.00000000      -0.01230659      -0.10345075      -0.69957796 
Pt      4.16224265       0.80102397       4.00000000       0.00000000       0.00000000       0.00000000       78        3       0.00000000       0.38395603      -0.39738912      -0.66584804 
Pt      6.93707108       0.80102397       4.00000000       0.00000000       0.00000000       0.00000000       78        3       0.00000000       0.04155964      -0.30308943      -0.31179581 
Pt      2.77482843       3.20409588       4.00000000       0.00000000       0.00000000       0.00000000       78        3       0.00000000      -0.21081730       0.38720495      -0.90206917 
Pt      5.54965686       3.20409588       4.00000000       0.00000000       0.00000000       0.00000000       78        3       0.00000000      -0.27849707       0.52523779      -1.16279911 
Pt      8.32448529       3.20409588       4.00000000       0.00000000       0.00000000       0.00000000       78        3       0.00000000       0.63284914       0.43717887      -0.54463701 
Pt     -1.36464438       2.77797372       6.17632892       0.29833652       2.45030606       0.65147804       78        2       0.00000000       0.59263823       1.85122598       1.55678499 
Pt      2.89957245       0.54246614       6.37247257       1.15397068       6.77909686       4.34690710       78        2       0.00000000      -1.32663653      -4.42913477       0.75317227 
Pt      4.19005997       2.50468421       6.25306418      -4.37229120       1.27286308       9.08815049       78        2       0.00000000       4.37101761       4.04376990       0.72460084 
Pt      0.35529204       5.29235818       6.54740763       0.42168520       3.39271833     -11.46479213       78        2       0.00000000      -0.86904579      -1.45885608       0.06123026 
Pt      1.76856145       3.04561081       6.44639734       7.69062489      -5.56854984       7.52540411       78        2       0.00000000      -2.00266670       0.67426189       0.64357435 
Pt      8.65471673       0.78196183       6.42339442      -5.22083379      -8.74131727     -10.97073457       78        1       0.00000000      -1.32341415      -1.23046794       0.54505742 
12
Lattice="8.3244852922 0.0 0.0 2.77482843073 4.80614382431 0.0 0.0 0.0 12.5312758527" Properties=species:S:1:pos:R:3:momenta:R:3:Z:I:1:tags:I:1:magmoms:R:1:forces:R:3 energy=-14513.4997799 pbc="T T T"
Pt      1.38741422       0.80102397       4.00000000       0.00000000       0.00000000       0.00000000       78        3       0.00000000      -0.09296122      -0.10526327      -0.60057017 
Pt      4.16224265       0.80102397       4.00000000       0.00000000       0.00000000       0.00000000       78        3       0.00000000       0.41400201      -0.43749742      -0.72080451 
Pt      6.93707108       0.80102397       4.00000000       0.00000000       0.00000000       0.00000000       78        3       0.00000000       0.03688620      -0.31197457      -0.20271516 
Pt      2.77482843       3.20409588       4.00000000       0.00000000       0.00000000       0.00000000       78        3       0.00000000      -0.21249494       0.41806721      -0.97221746 
Pt      5.54965686       3.20409588       4.00000000       0.00000000       0.00000000       0.00000000       78        3       0.00000000      -0.21970737       0.56134295      -1.27744753 
Pt      8.32448529       3.20409588       4.00000000       0.00000000       0.00000000       0.00000000       78        3       0.00000000       0.62186993       0.44360385      -0.55246763 
Pt     -1.36426808       2.77181916       6.17541709      -0.48451003       2.49893362       0.00918799       78        2       0.00000000       0.56491566       1.79839088       1.57359438 
Pt      2.89612717       0.52350509       6.36136563       1.67492902       8.32629710       4.28959346       78        2       0.00000000      -1.04062664      -3.93385776       0.76521684 
Pt      4.20282082       2.50309675       6.23062226      -5.63484070       0.16100464       8.65206727       78        2       0.00000000       3.61689022       3.64312446       0.93332761 
Pt      0.35422373       5.28338295       6.57551433       0.71188363       3.58051106     -10.91140298       78        2       0.00000000      -0.82804722      -1.24860295      -0.03175109 
Pt      1.74848893       3.05974339       6.42770507       7.92719583      -5.76740699       7.37015299       78        2       0.00000000      -1.41375322       0.53229708       0.67761284 
Pt      8.66741915       0.80380136       6.45156202      -4.74841679      -8.60068192     -11.33230550       78        1       0.00000000      -1.44621081      -1.36248706       0.41492880 
12
Lattice="8.3244852922 0.0 0.0 2.77482843073 4.80614382431 0.0 0.0 0.0 12.5312758527" Properties=species:S:1:pos:R:3:momenta:R:3:Z:I:1:tags:I:1:magmoms:R:1:forces:R:3 energy=-14513.529762 pbc="T T T"
Pt      1.38741422       0.80102397       4.00000000       0.00000000       0.00000000       0.00000000       78        3       0.00000000       1.41425721       0.68024289      -2.42710505 
Pt      4.16224265       0.80102397       4.00000000       0.00000000       0.00000000       0.00000000       78        3       0.00000000       0.09378956      -0.19355527      -1.31940431 
Pt      6.93707108       0.80102397       4.00000000       0.00000000       0.00000000       0.00000000       78        3       0.00000000      -0.65253569       0.91234059      -2.26776010 
Pt      2.77482843       3.20409588       4.00000000       0.00000000       0.00000000       0.00000000       78        3       0.00000000      -1.12978853      -0.77113421      -3.45639725 
Pt      5.54965686       3.20409588       4.00000000       0.00000000       0.00000000       0.00000000       78        3       0.00000000       0.39570216       0.03251596      -0.66519806 
Pt      8.32448529       3.20409588       4.00000000       0.00000000       0.00000000       0.00000000       78        3       0.00000000      -0.20287575       0.18565148      -0.30871920 
Pt     -1.40716394       2.71091383       6.41511862      -0.89681749      -2.95302276       7.89666431       78        2       0.00000000       0.69980828      -0.32097938       0.21127493 
Pt      2.90868896       0.13946588       6.30822424      -6.05814338       5.84370880       7.82149980       78        2       0.00000000      -1.04380586       0.20480656       0.90589839 
Pt      3.94480413       2.58399996       6.13648999       4.32887464      -4.51742990      -2.46395495       78        2       0.00000000       2.34729689      -1.00252316       2.74819032 
Pt      0.13632655       5.21342416       6.26226659       2.42102750      -1.62230953      -3.83706821       78        2       0.00000000      -1.08680478      -1.39848876       1.37276190 
Pt      1.25633486       2.39535830       6.32855012      -0.71289718       4.62919469      -3.94788171       78        2       0.00000000       0.22525795       0.92918091       0.70308288 
Pt      8.37249124       0.04954679       5.95980722       0.91003167      -2.37180910      -5.78541046       78        1       0.00000000      -1.06240499       0.74720110       4.50152026 
12
Lattice="8.3244852922 0.0 0.0 2.77482843073 4.80614382431 0.0 0.0 0.0 12.5312758527" Properties=species:S:1:pos:R:3:momenta:R:3:Z:I:1:tags:I:1:magmoms:R:1:forces:R:3 energy=-14511.4138393 pbc="T T T"
Pt      1.38741422       0.80102397       4.00000000       0.00000000       0.00000000       0.00000000       78        3       0.00000000      -0.76396702       0.26127297      -0.40184838 
Pt      4.16224265       0.80102397       4.00000000       0.00000000       0.00000000       0.00000000       78        3       0.00000000       0.88651898       0.07300099      -1.47497712 
Pt      6.93707108       0.80102397       4.00000000       0.00000000       0.00000000       0.00000000       78        3       0.00000000       0.02565839      -0.15187242       0.20426537 
Pt      2.77482843       3.20409588       4.00000000       0.00000000       0.00000000       0.00000000       78        3       0.00000000       1.75232718       0.15196973      -3.42034244 
Pt      5.54965686       3.20409588       4.00000000       0.00000000       0.00000000       0.00000000       78        3       0.00000000       1.24710495      -0.13984623      -4.20197775 
Pt      8.32448529       3.20409588       4.00000000       0.00000000       0.00000000       0.00000000       78        3       0.00000000      -0.94356842       0.23948193      -3.18481339 
Pt     -1.19324065       2.74546684       6.23335440      -5.83050138       0.73795561      -1.00667764       78        2       0.00000000      -0.65848228      -0.12194854       1.71067508 
Pt      2.82046766       0.00131505       6.05657355      -1.65323063       2.24781005       7.07333109       78        2       0.00000000       0.34946881       2.50283199       2.67213124 
Pt      4.42030995       2.55017909       6.07008324       4.67765022       5.94881492      -5.75478084       78        2       0.00000000      -2.90785004      -1.34999984       3.14643093 
Pt      0.16882426       5.28802976       6.96720655       5.47242878      -4.34165169      -2.28965808       78        2       0.00000000      -0.07534119       0.03708604      -0.05306597 
Pt      1.46403545       3.32221346       5.98681695       0.67639715      -4.05214471       5.23353671       78        2       0.00000000       0.94346977       0.22576436       4.89919334 
Pt      8.85186986       1.05132873       6.89782132      -3.55481992      -0.61354068      -1.94404636       78        1       0.00000000       0.14148789      -1.73179431       0.10343294 
12
Lattice="8.3244852922 0.0 0.0 2.77482843073 4.80614382431 0.0 0.0 0.0 12.5312758527" Properties=species:S:1:pos:R:3:momenta:R:3:Z:I:1:tags:I:1:magmoms:R:1:forces:R:3 energy=-14512.8395382 pbc="T T T"
Pt      1.38741422       0.80102397       4.00000000       0.00000000       0.00000000       0.00000000       78        3       0.00000000      -0.04984402      -0.86470151      -0.72815356 
Pt      4.16224265       0.80102397       4.00000000       0.00000000       0.00000000       0.00000000       78        3       0.00000000      -0.47318014      -1.13083836      -2.09091921 
Pt      6.93707108       0.80102397       4.00000000       0.00000000       0.00000000       0.00000000       78        3       0.00000000       0.49259892      -0.37729860      -0.22458049 
Pt      2.77482843       3.20409588       4.00000000       0.00000000       0.00000000       0.00000000       78        3       0.00000000       0.65868392       1.33781770      -2.67175007 
Pt      5.54965686       3.20409588       4.00000000       0.00000000       0.00000000       0.00000000       78        3       0.00000000      -0.58904567       1.06142435      -2.27079568 
Pt      8.32448529       3.20409588       4.00000000       0.00000000       0.00000000       0.00000000       78        3       0.00000000      -0.59801247       0.68284620      -2.89578635 
Pt     -1.49144612       2.61676414       6.09398979       4.61230478       2.04993590       2.98131638       78        2       0.00000000       0.95607197      -1.71242141       2.75867998 
Pt      2.69840688       0.04190238       6.61245787      -3.75860097       5.06146051      -1.36579366       78        2       0.00000000       3.18517336       0.45211445       0.00316385 
Pt      4.11576768       2.26873112       6.06508505       5.74451152       0.28971375       4.54007216       78        2       0.00000000      -0.13480091       1.26427410       3.19749893 
Pt     -0.06941220       4.87891356       6.27377156      -5.26051226      -1.70581802      -2.98009415       78        2       0.00000000       1.10282937      -0.23993315       0.94594540 
Pt      1.38589808       2.54684375       5.98462488       1.05712912     -13.78912159       0.31988718       78        2       0.00000000      -0.28460172      -0.77873447       4.37220016 
Pt      8.66660176      -0.07078660       6.57206364      -2.50361133       7.77617591      -2.09784085       78        1       0.00000000      -4.26704578       0.30409548      -0.39115637 
12
Lattice="8.3244852922 0.0 0.0 2.77482843073 4.80614382431 0.0 0.0 0.0 12.5312758527" Properties=species:S:1:pos:R:3:momenta:R:3:Z:I:1:tags:I:1:magmoms:R:1:forces:R:3 energy=-14513.6373191 pbc="T T T"
Pt      1.38741422       0.80102397       4.00000000       0.00000000       0.00000000       0.00000000       78        3       0.00000000       0.64998799      -0.39511720      -1.34349915 
Pt      4.16224265       0.80102397       4.00000000       0.00000000       0.00000000       0.00000000       78        3       0.00000000      -0.27486541      -0.11377090       0.36566801 
Pt      6.93707108       0.80102397       4.00000000       0.00000000       0.00000000       0.00000000       78        3       0.00000000       0.29566926      -0.55854409      -1.81314690 
Pt      2.77482843       3.20409588       4.00000000       0.00000000       0.00000000       0.00000000       78        3       0.00000000      -0.03085340       0.23750925      -1.33584953 
Pt      5.54965686       3.20409588       4.00000000       0.00000000       0.00000000       0.00000000       78        3       0.00000000      -0.79179701       1.08923593      -1.96510104 
Pt      8.32448529       3.20409588       4.00000000       0.00000000       0.00000000       0.00000000       78        3       0.00000000      -0.22663159       0.08783069      -1.41464347 
Pt     -1.65417617       2.38304386       6.07429672       8.87309046      -7.98049095     -12.92680400       78        2       0.00000000       1.65430024       0.38629485       3.11671696 
Pt      2.78536028       0.07020901       6.64838242       7.01241006      -4.61403648       8.39544964       78        2       0.00000000       1.32103391       0.35606730      -0.47290774 
Pt      4.03386436       2.67076674       6.29348722     -10.99349708       9.18383122       8.30558727       78        2       0.00000000       0.61241837      -2.03395200       1.07397356 
Pt      0.24284499       4.68669708       6.26017527      -1.96988464       2.77199786      -0.50356508       78        2       0.00000000      -1.69018935       0.68015269       1.05546807 
Pt      1.36464770       2.37492563       6.17758854      -5.35104618      -1.64708118      -5.46211261       78        2       0.00000000       1.03812435       1.04451646       1.60642277 
Pt      8.52014727       0.18547582       6.29385588       2.99523026       2.45169641       1.09359390       78        1       0.00000000      -2.55576423      -0.77901899       1.14744023 
12
Lattice="8.3244852922 0.0 0.0 2.77482843073 4.80614382431 0.0 0.0 0.0 12.5312758527" Properties=species:S:1:pos:R:3:momenta:R:3:Z:I:1:tags:I:1:magmoms:R:1:forces:R:3 energy=-14512.9128107 pbc="T T T"
Pt      1.38741422       0.80102397       4.00000000       0.00000000       0.00000000       0.00000000       78        3       0.00000000       0.09562356       0.18608654       0.12288305 
Pt      4.16224265       0.80102397       4.00000000       0.00000000       0.00000000       0.00000000       78        3       0.00000000       0.01698945      -0.11559073      -0.77227600 
Pt      6.93707108       0.80102397       4.00000000       0.00000000       0.00000000       0.00000000       78        3       0.00000000       0.18356429       0.38375958      -0.77517416 
Pt      2.77482843       3.20409588       4.00000000       0.00000000       0.00000000       0.00000000       78        3       0.00000000       0.04617988      -0.77035024      -1.30385637 
Pt      5.54965686       3.20409588       4.00000000       0.00000000       0.00000000       0.00000000       78        3       0.00000000       0.66938275       0.36930124      -2.18442536 
Pt      8.32448529       3.20409588       4.00000000       0.00000000       0.00000000       0.00000000       78        3       0.00000000      -0.05556069      -0.01121280      -0.45473208 
Pt     -1.33779462       3.14367817       6.43986813      -3.54434419      -1.27302997      -4.24691561       78        2       0.00000000       2.50851076      -0.34021848       0.53049357 
Pt      3.05675096       0.81108686       6.41409357      -6.59309584       4.48477350       6.54904743       78        2       0.00000000      -1.46513156      -0.66878512       0.45409785 
Pt      4.62477745       2.87941041       6.27136090       3.70455405       1.58199406     -11.64382712       78        2       0.00000000      -2.84218047       0.15356449       2.02349610 
Pt      0.24132361       5.37571578       6.36040404       1.84298725      -4.49155879      12.58050541       78        2       0.00000000       0.02482285      -0.31028962       0.89127511 
Pt      1.19615554       2.78116560       6.39861572      -1.10254135       0.55477551      -0.99122583       78        2       0.00000000      -1.44133356      -3.36337652       0.58683346 
Pt      8.31635689      -0.24831539       6.21819036       5.22474305      -0.98055943      -2.59942401       78        1       0.00000000       2.25302360       4.48177860       0.88251104 
12